# vtk DataFile Version 2.0

ASCII

DATASET UNSTRUCTURED_GRID

POINTS 101 float

0.0000000000000000e+00 0.0000000000000000e+00 0.0000000000000000e+00
1.0000000000000001e-01 0.0000000000000000e+00 0.0000000000000000e+00
2.0000000000000001e-01 0.0000000000000000e+00 0.0000000000000000e+00
3.0000000000000004e-01 0.0000000000000000e+00 0.0000000000000000e+00
4.0000000000000002e-01 0.0000000000000000e+00 0.0000000000000000e+00
5.0000000000000000e-01 0.0000000000000000e+00 0.0000000000000000e+00
6.0000000000000009e-01 0.0000000000000000e+00 0.0000000000000000e+00
7.0000000000000007e-01 0.0000000000000000e+00 0.0000000000000000e+00
8.0000000000000004e-01 0.0000000000000000e+00 0.0000000000000000e+00
9.0000000000000002e-01 0.0000000000000000e+00 0.0000000000000000e+00
1.0000000000000000e+00 0.0000000000000000e+00 0.0000000000000000e+00
1.1000000000000001e+00 0.0000000000000000e+00 0.0000000000000000e+00
1.2000000000000002e+00 0.0000000000000000e+00 0.0000000000000000e+00
1.3000000000000000e+00 0.0000000000000000e+00 0.0000000000000000e+00
1.4000000000000001e+00 0.0000000000000000e+00 0.0000000000000000e+00
1.5000000000000000e+00 0.0000000000000000e+00 0.0000000000000000e+00
1.6000000000000001e+00 0.0000000000000000e+00 0.0000000000000000e+00
1.7000000000000002e+00 0.0000000000000000e+00 0.0000000000000000e+00
1.8000000000000000e+00 0.0000000000000000e+00 0.0000000000000000e+00
1.9000000000000001e+00 0.0000000000000000e+00 0.0000000000000000e+00
2.0000000000000000e+00 0.0000000000000000e+00 0.0000000000000000e+00
2.1000000000000001e+00 0.0000000000000000e+00 0.0000000000000000e+00
2.2000000000000002e+00 0.0000000000000000e+00 0.0000000000000000e+00
2.3000000000000003e+00 0.0000000000000000e+00 0.0000000000000000e+00
2.4000000000000004e+00 0.0000000000000000e+00 0.0000000000000000e+00
2.5000000000000000e+00 0.0000000000000000e+00 0.0000000000000000e+00
2.6000000000000001e+00 0.0000000000000000e+00 0.0000000000000000e+00
2.7000000000000002e+00 0.0000000000000000e+00 0.0000000000000000e+00
2.8000000000000003e+00 0.0000000000000000e+00 0.0000000000000000e+00
2.9000000000000004e+00 0.0000000000000000e+00 0.0000000000000000e+00
3.0000000000000000e+00 0.0000000000000000e+00 0.0000000000000000e+00
3.1000000000000001e+00 0.0000000000000000e+00 0.0000000000000000e+00
3.2000000000000002e+00 0.0000000000000000e+00 0.0000000000000000e+00
3.3000000000000003e+00 0.0000000000000000e+00 0.0000000000000000e+00
3.4000000000000004e+00 0.0000000000000000e+00 0.0000000000000000e+00
3.5000000000000000e+00 0.0000000000000000e+00 0.0000000000000000e+00
3.6000000000000001e+00 0.0000000000000000e+00 0.0000000000000000e+00
3.7000000000000002e+00 0.0000000000000000e+00 0.0000000000000000e+00
3.8000000000000003e+00 0.0000000000000000e+00 0.0000000000000000e+00
3.9000000000000004e+00 0.0000000000000000e+00 0.0000000000000000e+00
4.0000000000000000e+00 0.0000000000000000e+00 0.0000000000000000e+00
4.1000000000000005e+00 0.0000000000000000e+00 0.0000000000000000e+00
4.2000000000000002e+00 0.0000000000000000e+00 0.0000000000000000e+00
4.2999999999999998e+00 0.0000000000000000e+00 0.0000000000000000e+00
4.4000000000000004e+00 0.0000000000000000e+00 0.0000000000000000e+00
4.5000000000000000e+00 0.0000000000000000e+00 0.0000000000000000e+00
4.6000000000000005e+00 0.0000000000000000e+00 0.0000000000000000e+00
4.7000000000000002e+00 0.0000000000000000e+00 0.0000000000000000e+00
4.8000000000000007e+00 0.0000000000000000e+00 0.0000000000000000e+00
4.9000000000000004e+00 0.0000000000000000e+00 0.0000000000000000e+00
5.0000000000000000e+00 0.0000000000000000e+00 0.0000000000000000e+00
5.1000000000000005e+00 0.0000000000000000e+00 0.0000000000000000e+00
5.2000000000000002e+00 0.0000000000000000e+00 0.0000000000000000e+00
5.3000000000000007e+00 0.0000000000000000e+00 0.0000000000000000e+00
5.4000000000000004e+00 0.0000000000000000e+00 0.0000000000000000e+00
5.5000000000000000e+00 0.0000000000000000e+00 0.0000000000000000e+00
5.6000000000000005e+00 0.0000000000000000e+00 0.0000000000000000e+00
5.7000000000000002e+00 0.0000000000000000e+00 0.0000000000000000e+00
5.8000000000000007e+00 0.0000000000000000e+00 0.0000000000000000e+00
5.9000000000000004e+00 0.0000000000000000e+00 0.0000000000000000e+00
6.0000000000000000e+00 0.0000000000000000e+00 0.0000000000000000e+00
6.1000000000000005e+00 0.0000000000000000e+00 0.0000000000000000e+00
6.2000000000000002e+00 0.0000000000000000e+00 0.0000000000000000e+00
6.3000000000000007e+00 0.0000000000000000e+00 0.0000000000000000e+00
6.4000000000000004e+00 0.0000000000000000e+00 0.0000000000000000e+00
6.5000000000000000e+00 0.0000000000000000e+00 0.0000000000000000e+00
6.6000000000000005e+00 0.0000000000000000e+00 0.0000000000000000e+00
6.7000000000000002e+00 0.0000000000000000e+00 0.0000000000000000e+00
6.8000000000000007e+00 0.0000000000000000e+00 0.0000000000000000e+00
6.9000000000000004e+00 0.0000000000000000e+00 0.0000000000000000e+00
7.0000000000000000e+00 0.0000000000000000e+00 0.0000000000000000e+00
7.1000000000000005e+00 0.0000000000000000e+00 0.0000000000000000e+00
7.2000000000000002e+00 0.0000000000000000e+00 0.0000000000000000e+00
7.3000000000000007e+00 0.0000000000000000e+00 0.0000000000000000e+00
7.4000000000000004e+00 0.0000000000000000e+00 0.0000000000000000e+00
7.5000000000000000e+00 0.0000000000000000e+00 0.0000000000000000e+00
7.6000000000000005e+00 0.0000000000000000e+00 0.0000000000000000e+00
7.7000000000000002e+00 0.0000000000000000e+00 0.0000000000000000e+00
7.8000000000000007e+00 0.0000000000000000e+00 0.0000000000000000e+00
7.9000000000000004e+00 0.0000000000000000e+00 0.0000000000000000e+00
8.0000000000000000e+00 0.0000000000000000e+00 0.0000000000000000e+00
8.0999999999999996e+00 0.0000000000000000e+00 0.0000000000000000e+00
8.2000000000000011e+00 0.0000000000000000e+00 0.0000000000000000e+00
8.3000000000000007e+00 0.0000000000000000e+00 0.0000000000000000e+00
8.4000000000000004e+00 0.0000000000000000e+00 0.0000000000000000e+00
8.5000000000000000e+00 0.0000000000000000e+00 0.0000000000000000e+00
8.5999999999999996e+00 0.0000000000000000e+00 0.0000000000000000e+00
8.7000000000000011e+00 0.0000000000000000e+00 0.0000000000000000e+00
8.8000000000000007e+00 0.0000000000000000e+00 0.0000000000000000e+00
8.9000000000000004e+00 0.0000000000000000e+00 0.0000000000000000e+00
9.0000000000000000e+00 0.0000000000000000e+00 0.0000000000000000e+00
9.0999999999999996e+00 0.0000000000000000e+00 0.0000000000000000e+00
9.2000000000000011e+00 0.0000000000000000e+00 0.0000000000000000e+00
9.3000000000000007e+00 0.0000000000000000e+00 0.0000000000000000e+00
9.4000000000000004e+00 0.0000000000000000e+00 0.0000000000000000e+00
9.5000000000000000e+00 0.0000000000000000e+00 0.0000000000000000e+00
9.6000000000000014e+00 0.0000000000000000e+00 0.0000000000000000e+00
9.7000000000000011e+00 0.0000000000000000e+00 0.0000000000000000e+00
9.8000000000000007e+00 0.0000000000000000e+00 0.0000000000000000e+00
9.9000000000000004e+00 0.0000000000000000e+00 0.0000000000000000e+00
1.0000000000000000e+01 0.0000000000000000e+00 0.0000000000000000e+00

POINT_DATA 101

VECTORS velocity float
5.2964259520318135e+00 0.0000000000000000e+00 0.0000000000000000e+00
5.2963505519083034e+00 0.0000000000000000e+00 0.0000000000000000e+00
5.2962729409790663e+00 0.0000000000000000e+00 0.0000000000000000e+00
5.2961949551983087e+00 0.0000000000000000e+00 0.0000000000000000e+00
5.2961182184472229e+00 0.0000000000000000e+00 0.0000000000000000e+00
5.2960407351947119e+00 0.0000000000000000e+00 0.0000000000000000e+00
5.2959632885663117e+00 0.0000000000000000e+00 0.0000000000000000e+00
5.2958914962970205e+00 0.0000000000000000e+00 0.0000000000000000e+00
5.2958216602756512e+00 0.0000000000000000e+00 0.0000000000000000e+00
5.2957450750804886e+00 0.0000000000000000e+00 0.0000000000000000e+00
5.2956634275975674e+00 0.0000000000000000e+00 0.0000000000000000e+00
5.2955787818114883e+00 0.0000000000000000e+00 0.0000000000000000e+00
5.2954905610993084e+00 0.0000000000000000e+00 0.0000000000000000e+00
5.2954003358004549e+00 0.0000000000000000e+00 0.0000000000000000e+00
5.2953105288596376e+00 0.0000000000000000e+00 0.0000000000000000e+00
5.2952212708062909e+00 0.0000000000000000e+00 0.0000000000000000e+00
5.2951354400685062e+00 0.0000000000000000e+00 0.0000000000000000e+00
5.2950524057671862e+00 0.0000000000000000e+00 0.0000000000000000e+00
5.2949659808475422e+00 0.0000000000000000e+00 0.0000000000000000e+00
5.2948737395422301e+00 0.0000000000000000e+00 0.0000000000000000e+00
5.2947781405074368e+00 0.0000000000000000e+00 0.0000000000000000e+00
5.2946833563156677e+00 0.0000000000000000e+00 0.0000000000000000e+00
5.2945912722583088e+00 0.0000000000000000e+00 0.0000000000000000e+00
5.2945027442485193e+00 0.0000000000000000e+00 0.0000000000000000e+00
5.2944081113734702e+00 0.0000000000000000e+00 0.0000000000000000e+00
5.2943074633142624e+00 0.0000000000000000e+00 0.0000000000000000e+00
5.2942104201843385e+00 0.0000000000000000e+00 0.0000000000000000e+00
5.2941139661894638e+00 0.0000000000000000e+00 0.0000000000000000e+00
5.2940174304479122e+00 0.0000000000000000e+00 0.0000000000000000e+00
5.2939202397121088e+00 0.0000000000000000e+00 0.0000000000000000e+00
5.2938221007271737e+00 0.0000000000000000e+00 0.0000000000000000e+00
5.2937232342436458e+00 0.0000000000000000e+00 0.0000000000000000e+00
5.2936234899825925e+00 0.0000000000000000e+00 0.0000000000000000e+00
5.2935225814928497e+00 0.0000000000000000e+00 0.0000000000000000e+00
5.2934206420263017e+00 0.0000000000000000e+00 0.0000000000000000e+00
5.2933177861136285e+00 0.0000000000000000e+00 0.0000000000000000e+00
5.2932140933083733e+00 0.0000000000000000e+00 0.0000000000000000e+00
5.2931094989224965e+00 0.0000000000000000e+00 0.0000000000000000e+00
5.2930042682888923e+00 0.0000000000000000e+00 0.0000000000000000e+00
5.2928975434328258e+00 0.0000000000000000e+00 0.0000000000000000e+00
5.2927884159435861e+00 0.0000000000000000e+00 0.0000000000000000e+00
5.2926777175992870e+00 0.0000000000000000e+00 0.0000000000000000e+00
5.2925656451627763e+00 0.0000000000000000e+00 0.0000000000000000e+00
5.2924523038514550e+00 0.0000000000000000e+00 0.0000000000000000e+00
5.2923377506751770e+00 0.0000000000000000e+00 0.0000000000000000e+00
5.2922220184325841e+00 0.0000000000000000e+00 0.0000000000000000e+00
5.2921051262814993e+00 0.0000000000000000e+00 0.0000000000000000e+00
5.2919870869688399e+00 0.0000000000000000e+00 0.0000000000000000e+00
5.2918679102112378e+00 0.0000000000000000e+00 0.0000000000000000e+00
5.2917476034294042e+00 0.0000000000000000e+00 0.0000000000000000e+00
5.2916261726321840e+00 0.0000000000000000e+00 0.0000000000000000e+00
5.2915036230236572e+00 0.0000000000000000e+00 0.0000000000000000e+00
5.2913799607522467e+00 0.0000000000000000e+00 0.0000000000000000e+00
5.2912551912574699e+00 0.0000000000000000e+00 0.0000000000000000e+00
5.2911293196535887e+00 0.0000000000000000e+00 0.0000000000000000e+00
5.2910023515641145e+00 0.0000000000000000e+00 0.0000000000000000e+00
5.2908742910635409e+00 0.0000000000000000e+00 0.0000000000000000e+00
5.2907451426389311e+00 0.0000000000000000e+00 0.0000000000000000e+00
5.2906149121744601e+00 0.0000000000000000e+00 0.0000000000000000e+00
5.2904836048169628e+00 0.0000000000000000e+00 0.0000000000000000e+00
5.2903512254472842e+00 0.0000000000000000e+00 0.0000000000000000e+00
5.2902177781005086e+00 0.0000000000000000e+00 0.0000000000000000e+00
5.2900832669840723e+00 0.0000000000000000e+00 0.0000000000000000e+00
5.2899476963613878e+00 0.0000000000000000e+00 0.0000000000000000e+00
5.2898110704860066e+00 0.0000000000000000e+00 0.0000000000000000e+00
5.2896733936779921e+00 0.0000000000000000e+00 0.0000000000000000e+00
5.2895346699595613e+00 0.0000000000000000e+00 0.0000000000000000e+00
5.2893949034724210e+00 0.0000000000000000e+00 0.0000000000000000e+00
5.2892540983015639e+00 0.0000000000000000e+00 0.0000000000000000e+00
5.2891122582630823e+00 0.0000000000000000e+00 0.0000000000000000e+00
5.2889693870457242e+00 0.0000000000000000e+00 0.0000000000000000e+00
5.2888254880926757e+00 0.0000000000000000e+00 0.0000000000000000e+00
5.2886805647783204e+00 0.0000000000000000e+00 0.0000000000000000e+00
5.2885346208292168e+00 0.0000000000000000e+00 0.0000000000000000e+00
5.2883876596480626e+00 0.0000000000000000e+00 0.0000000000000000e+00
5.2882396845740489e+00 0.0000000000000000e+00 0.0000000000000000e+00
5.2880906994653207e+00 0.0000000000000000e+00 0.0000000000000000e+00
5.2879407068961282e+00 0.0000000000000000e+00 0.0000000000000000e+00
5.2877897101288180e+00 0.0000000000000000e+00 0.0000000000000000e+00
5.2876377130874843e+00 0.0000000000000000e+00 0.0000000000000000e+00
5.2874847174251887e+00 0.0000000000000000e+00 0.0000000000000000e+00
5.2873307255066369e+00 0.0000000000000000e+00 0.0000000000000000e+00
5.2871757400567274e+00 0.0000000000000000e+00 0.0000000000000000e+00
5.2870197669720618e+00 0.0000000000000000e+00 0.0000000000000000e+00
5.2868628076383288e+00 0.0000000000000000e+00 0.0000000000000000e+00
5.2867048592049377e+00 0.0000000000000000e+00 0.0000000000000000e+00
5.2865459233657104e+00 0.0000000000000000e+00 0.0000000000000000e+00
5.2863860065770938e+00 0.0000000000000000e+00 0.0000000000000000e+00
5.2862251138895457e+00 0.0000000000000000e+00 0.0000000000000000e+00
5.2860632470714162e+00 0.0000000000000000e+00 0.0000000000000000e+00
5.2859004065876150e+00 0.0000000000000000e+00 0.0000000000000000e+00
5.2857365892917070e+00 0.0000000000000000e+00 0.0000000000000000e+00
5.2855718005989365e+00 0.0000000000000000e+00 0.0000000000000000e+00
5.2854060436098917e+00 0.0000000000000000e+00 0.0000000000000000e+00
5.2852393211524387e+00 0.0000000000000000e+00 0.0000000000000000e+00
5.2850716262296640e+00 0.0000000000000000e+00 0.0000000000000000e+00
5.2849029833394674e+00 0.0000000000000000e+00 0.0000000000000000e+00
5.2847333308529150e+00 0.0000000000000000e+00 0.0000000000000000e+00
5.2845628449020268e+00 0.0000000000000000e+00 0.0000000000000000e+00
5.2843910456897394e+00 0.0000000000000000e+00 0.0000000000000000e+00
5.2842192464774520e+00 0.0000000000000000e+00 0.0000000000000000e+00


SCALARS pressure float
LOOKUP_TABLE default
-3.6386279846536979e+01
-3.6019693972890877e+01
-3.5653108099244783e+01
-3.5286578340201871e+01
-3.4920121241697224e+01
-3.4553745425231803e+01
-3.4187442285687986e+01
-3.3821211488654285e+01
-3.3455076519115636e+01
-3.3089027519291612e+01
-3.2723025876528396e+01
-3.2357070751719625e+01
-3.1991170486633230e+01
-3.1625323901057630e+01
-3.1259536885017120e+01
-3.0893820663384545e+01
-3.0528177962893899e+01
-3.0162621777678783e+01
-2.9797152031331283e+01
-2.9431741937967598e+01
-2.9066375238770142e+01
-2.8701058833606609e+01
-2.8335812095973342e+01
-2.7970647530844275e+01
-2.7605571746356286e+01
-2.7240543536040626e+01
-2.6875553446786707e+01
-2.6510641178482629e+01
-2.6145802081544172e+01
-2.5781032214090839e+01
-2.5416328227344966e+01
-2.5051688060737007e+01
-2.4687112033624256e+01
-2.4322599264109073e+01
-2.3958147857012715e+01
-2.3593757517585846e+01
-2.3229428252400098e+01
-2.2865160019990608e+01
-2.2500952118178983e+01
-2.2136805243499388e+01
-2.1772715214613527e+01
-2.1408676153990637e+01
-2.1044689604515408e+01
-2.0680756019374662e+01
-2.0316875294820647e+01
-1.9953047033525252e+01
-1.9589270684781980e+01
-1.9225545610130823e+01
-1.8861871123823491e+01
-1.8498246513534980e+01
-1.8134671046484286e+01
-1.7771143973883518e+01
-1.7407664534227091e+01
-1.7044231961409416e+01
-1.6680845479371246e+01
-1.6317504302684988e+01
-1.5954207640467130e+01
-1.5590954688518957e+01
-1.5227744635755670e+01
-1.4864576670098513e+01
-1.4501449970687018e+01
-1.4138363708392665e+01
-1.3775317043569752e+01
-1.3412309130088047e+01
-1.3049339115697430e+01
-1.2686406141895105e+01
-1.2323509344377584e+01
-1.1960647851655736e+01
-1.1597820786629480e+01
-1.1235027266280568e+01
-1.0872266400804573e+01
-1.0509537294168762e+01
-1.0146839043835380e+01
-9.7841707415975634e+00
-9.4215314756094539e+00
-9.0589203280398145e+00
-8.6963363758096737e+00
-8.3337786931772051e+00
-7.9712463449777022e+00
-7.6087383932980615e+00
-7.2462538995347989e+00
-6.8837919119606497e+00
-6.5213514759638800e+00
-6.1589316348350485e+00
-5.7965314419094547e+00
-5.4341499310983590e+00
-5.0717861110004785e+00
-4.7094390017514591e+00
-4.3471076435380560e+00
-3.9847910730456757e+00
-3.6224883094625460e+00
-3.2601983604796945e+00
-2.8979202138942992e+00
-2.5356528882457203e+00
-2.1733953960097412e+00
-1.8111467473658154e+00
-1.4489059028567337e+00
-1.0866719622543890e+00
-7.2444363723770244e-01
-3.6222070705227322e-01
0.0000000000000000e+00


SCALARS diameter float
LOOKUP_TABLE default
9.9669118384129063e-01
9.9673297745253608e-01
9.9677160687756061e-01
9.9680950322990258e-01
9.9684565538535919e-01
9.9688164462363194e-01
9.9691706604129260e-01
9.9695062202367679e-01
9.9698208299056090e-01
9.9701615079615602e-01
9.9705112054706224e-01
9.9708597820057687e-01
9.9712097705427283e-01
9.9715619574697978e-01
9.9719041322667168e-01
9.9722409234606169e-01
9.9725670106038011e-01
9.9728788768479182e-01
9.9732007417733648e-01
9.9735388166562189e-01
9.9738809662512051e-01
9.9742143957827700e-01
9.9745347223976233e-01
9.9748460467796574e-01
9.9751649773512974e-01
9.9755172433109363e-01
9.9758385096426849e-01
9.9761579170747705e-01
9.9764773724317157e-01
9.9767969441954318e-01
9.9771179261173393e-01
9.9774388177749340e-01
9.9777597242923288e-01
9.9780820803773684e-01
9.9784049082411475e-01
9.9787276937038538e-01
9.9790504434686167e-01
9.9793731700556276e-01
9.9796958603829555e-01
9.9800189113184457e-01
9.9803478141889335e-01
9.9806766147829351e-01
9.9810053433832557e-01
9.9813340092967173e-01
9.9816626179044854e-01
9.9819911724050503e-01
9.9823196731620767e-01
9.9826481250705679e-01
9.9829765247180202e-01
9.9833048757774512e-01
9.9836331780859011e-01
9.9839614365669882e-01
9.9842896486275035e-01
9.9846178142679798e-01
9.9849459353944670e-01
9.9852740110448512e-01
9.9856020427756265e-01
9.9859300360092740e-01
9.9862579846569544e-01
9.9865858895824322e-01
9.9869137505981365e-01
9.9872415701616502e-01
9.9875693502366980e-01
9.9878970904724884e-01
9.9882247921765810e-01
9.9885524546628335e-01
9.9888800791982246e-01
9.9892076659089846e-01
9.9895352147976235e-01
9.9898627264969597e-01
9.9901902019589250e-01
9.9905176419475550e-01
9.9908450479251909e-01
9.9911724194040574e-01
9.9914997564706132e-01
9.9918270602890191e-01
9.9921543294724557e-01
9.9924815648399035e-01
9.9928087696120793e-01
9.9931359380718798e-01
9.9934630753775811e-01
9.9937901852076938e-01
9.9941172643739484e-01
9.9944443096534796e-01
9.9947713133590343e-01
9.9950983050998832e-01
9.9954252782875375e-01
9.9957522248669506e-01
9.9960791273420091e-01
9.9964060009359879e-01
9.9967328420662671e-01
9.9970596719784866e-01
9.9973864808001289e-01
9.9977132524513768e-01
9.9980400006681858e-01
9.9983667261337739e-01
9.9986934270962369e-01
9.9990201050452121e-01
9.9993467561618965e-01
9.9996733861194009e-01
1.0000000012064532e+00


SCALARS iters float
LOOKUP_TABLE default
3.0000000000000000e+00
3.0000000000000000e+00
3.0000000000000000e+00
3.0000000000000000e+00
3.0000000000000000e+00
3.0000000000000000e+00
3.0000000000000000e+00
3.0000000000000000e+00
3.0000000000000000e+00
3.0000000000000000e+00
3.0000000000000000e+00
3.0000000000000000e+00
3.0000000000000000e+00
3.0000000000000000e+00
3.0000000000000000e+00
3.0000000000000000e+00
3.0000000000000000e+00
3.0000000000000000e+00
3.0000000000000000e+00
3.0000000000000000e+00
3.0000000000000000e+00
3.0000000000000000e+00
3.0000000000000000e+00
3.0000000000000000e+00
3.0000000000000000e+00
3.0000000000000000e+00
3.0000000000000000e+00
3.0000000000000000e+00
3.0000000000000000e+00
3.0000000000000000e+00
3.0000000000000000e+00
3.0000000000000000e+00
3.0000000000000000e+00
3.0000000000000000e+00
3.0000000000000000e+00
3.0000000000000000e+00
3.0000000000000000e+00
3.0000000000000000e+00
3.0000000000000000e+00
3.0000000000000000e+00
3.0000000000000000e+00
3.0000000000000000e+00
3.0000000000000000e+00
3.0000000000000000e+00
3.0000000000000000e+00
3.0000000000000000e+00
3.0000000000000000e+00
3.0000000000000000e+00
3.0000000000000000e+00
3.0000000000000000e+00
3.0000000000000000e+00
3.0000000000000000e+00
3.0000000000000000e+00
3.0000000000000000e+00
3.0000000000000000e+00
3.0000000000000000e+00
3.0000000000000000e+00
3.0000000000000000e+00
3.0000000000000000e+00
3.0000000000000000e+00
3.0000000000000000e+00
3.0000000000000000e+00
3.0000000000000000e+00
3.0000000000000000e+00
3.0000000000000000e+00
3.0000000000000000e+00
3.0000000000000000e+00
3.0000000000000000e+00
3.0000000000000000e+00
3.0000000000000000e+00
3.0000000000000000e+00
3.0000000000000000e+00
3.0000000000000000e+00
3.0000000000000000e+00
3.0000000000000000e+00
3.0000000000000000e+00
3.0000000000000000e+00
3.0000000000000000e+00
3.0000000000000000e+00
3.0000000000000000e+00
3.0000000000000000e+00
3.0000000000000000e+00
3.0000000000000000e+00
3.0000000000000000e+00
3.0000000000000000e+00
3.0000000000000000e+00
3.0000000000000000e+00
3.0000000000000000e+00
3.0000000000000000e+00
3.0000000000000000e+00
3.0000000000000000e+00
3.0000000000000000e+00
3.0000000000000000e+00
3.0000000000000000e+00
3.0000000000000000e+00
3.0000000000000000e+00
3.0000000000000000e+00
3.0000000000000000e+00
3.0000000000000000e+00
3.0000000000000000e+00
3.0000000000000000e+00


