# vtk DataFile Version 2.0

ASCII

DATASET UNSTRUCTURED_GRID

POINTS 101 float

0.0000000000000000e+00 0.0000000000000000e+00 0.0000000000000000e+00
1.0000000000000001e-01 0.0000000000000000e+00 0.0000000000000000e+00
2.0000000000000001e-01 0.0000000000000000e+00 0.0000000000000000e+00
3.0000000000000004e-01 0.0000000000000000e+00 0.0000000000000000e+00
4.0000000000000002e-01 0.0000000000000000e+00 0.0000000000000000e+00
5.0000000000000000e-01 0.0000000000000000e+00 0.0000000000000000e+00
6.0000000000000009e-01 0.0000000000000000e+00 0.0000000000000000e+00
7.0000000000000007e-01 0.0000000000000000e+00 0.0000000000000000e+00
8.0000000000000004e-01 0.0000000000000000e+00 0.0000000000000000e+00
9.0000000000000002e-01 0.0000000000000000e+00 0.0000000000000000e+00
1.0000000000000000e+00 0.0000000000000000e+00 0.0000000000000000e+00
1.1000000000000001e+00 0.0000000000000000e+00 0.0000000000000000e+00
1.2000000000000002e+00 0.0000000000000000e+00 0.0000000000000000e+00
1.3000000000000000e+00 0.0000000000000000e+00 0.0000000000000000e+00
1.4000000000000001e+00 0.0000000000000000e+00 0.0000000000000000e+00
1.5000000000000000e+00 0.0000000000000000e+00 0.0000000000000000e+00
1.6000000000000001e+00 0.0000000000000000e+00 0.0000000000000000e+00
1.7000000000000002e+00 0.0000000000000000e+00 0.0000000000000000e+00
1.8000000000000000e+00 0.0000000000000000e+00 0.0000000000000000e+00
1.9000000000000001e+00 0.0000000000000000e+00 0.0000000000000000e+00
2.0000000000000000e+00 0.0000000000000000e+00 0.0000000000000000e+00
2.1000000000000001e+00 0.0000000000000000e+00 0.0000000000000000e+00
2.2000000000000002e+00 0.0000000000000000e+00 0.0000000000000000e+00
2.3000000000000003e+00 0.0000000000000000e+00 0.0000000000000000e+00
2.4000000000000004e+00 0.0000000000000000e+00 0.0000000000000000e+00
2.5000000000000000e+00 0.0000000000000000e+00 0.0000000000000000e+00
2.6000000000000001e+00 0.0000000000000000e+00 0.0000000000000000e+00
2.7000000000000002e+00 0.0000000000000000e+00 0.0000000000000000e+00
2.8000000000000003e+00 0.0000000000000000e+00 0.0000000000000000e+00
2.9000000000000004e+00 0.0000000000000000e+00 0.0000000000000000e+00
3.0000000000000000e+00 0.0000000000000000e+00 0.0000000000000000e+00
3.1000000000000001e+00 0.0000000000000000e+00 0.0000000000000000e+00
3.2000000000000002e+00 0.0000000000000000e+00 0.0000000000000000e+00
3.3000000000000003e+00 0.0000000000000000e+00 0.0000000000000000e+00
3.4000000000000004e+00 0.0000000000000000e+00 0.0000000000000000e+00
3.5000000000000000e+00 0.0000000000000000e+00 0.0000000000000000e+00
3.6000000000000001e+00 0.0000000000000000e+00 0.0000000000000000e+00
3.7000000000000002e+00 0.0000000000000000e+00 0.0000000000000000e+00
3.8000000000000003e+00 0.0000000000000000e+00 0.0000000000000000e+00
3.9000000000000004e+00 0.0000000000000000e+00 0.0000000000000000e+00
4.0000000000000000e+00 0.0000000000000000e+00 0.0000000000000000e+00
4.1000000000000005e+00 0.0000000000000000e+00 0.0000000000000000e+00
4.2000000000000002e+00 0.0000000000000000e+00 0.0000000000000000e+00
4.2999999999999998e+00 0.0000000000000000e+00 0.0000000000000000e+00
4.4000000000000004e+00 0.0000000000000000e+00 0.0000000000000000e+00
4.5000000000000000e+00 0.0000000000000000e+00 0.0000000000000000e+00
4.6000000000000005e+00 0.0000000000000000e+00 0.0000000000000000e+00
4.7000000000000002e+00 0.0000000000000000e+00 0.0000000000000000e+00
4.8000000000000007e+00 0.0000000000000000e+00 0.0000000000000000e+00
4.9000000000000004e+00 0.0000000000000000e+00 0.0000000000000000e+00
5.0000000000000000e+00 0.0000000000000000e+00 0.0000000000000000e+00
5.1000000000000005e+00 0.0000000000000000e+00 0.0000000000000000e+00
5.2000000000000002e+00 0.0000000000000000e+00 0.0000000000000000e+00
5.3000000000000007e+00 0.0000000000000000e+00 0.0000000000000000e+00
5.4000000000000004e+00 0.0000000000000000e+00 0.0000000000000000e+00
5.5000000000000000e+00 0.0000000000000000e+00 0.0000000000000000e+00
5.6000000000000005e+00 0.0000000000000000e+00 0.0000000000000000e+00
5.7000000000000002e+00 0.0000000000000000e+00 0.0000000000000000e+00
5.8000000000000007e+00 0.0000000000000000e+00 0.0000000000000000e+00
5.9000000000000004e+00 0.0000000000000000e+00 0.0000000000000000e+00
6.0000000000000000e+00 0.0000000000000000e+00 0.0000000000000000e+00
6.1000000000000005e+00 0.0000000000000000e+00 0.0000000000000000e+00
6.2000000000000002e+00 0.0000000000000000e+00 0.0000000000000000e+00
6.3000000000000007e+00 0.0000000000000000e+00 0.0000000000000000e+00
6.4000000000000004e+00 0.0000000000000000e+00 0.0000000000000000e+00
6.5000000000000000e+00 0.0000000000000000e+00 0.0000000000000000e+00
6.6000000000000005e+00 0.0000000000000000e+00 0.0000000000000000e+00
6.7000000000000002e+00 0.0000000000000000e+00 0.0000000000000000e+00
6.8000000000000007e+00 0.0000000000000000e+00 0.0000000000000000e+00
6.9000000000000004e+00 0.0000000000000000e+00 0.0000000000000000e+00
7.0000000000000000e+00 0.0000000000000000e+00 0.0000000000000000e+00
7.1000000000000005e+00 0.0000000000000000e+00 0.0000000000000000e+00
7.2000000000000002e+00 0.0000000000000000e+00 0.0000000000000000e+00
7.3000000000000007e+00 0.0000000000000000e+00 0.0000000000000000e+00
7.4000000000000004e+00 0.0000000000000000e+00 0.0000000000000000e+00
7.5000000000000000e+00 0.0000000000000000e+00 0.0000000000000000e+00
7.6000000000000005e+00 0.0000000000000000e+00 0.0000000000000000e+00
7.7000000000000002e+00 0.0000000000000000e+00 0.0000000000000000e+00
7.8000000000000007e+00 0.0000000000000000e+00 0.0000000000000000e+00
7.9000000000000004e+00 0.0000000000000000e+00 0.0000000000000000e+00
8.0000000000000000e+00 0.0000000000000000e+00 0.0000000000000000e+00
8.0999999999999996e+00 0.0000000000000000e+00 0.0000000000000000e+00
8.2000000000000011e+00 0.0000000000000000e+00 0.0000000000000000e+00
8.3000000000000007e+00 0.0000000000000000e+00 0.0000000000000000e+00
8.4000000000000004e+00 0.0000000000000000e+00 0.0000000000000000e+00
8.5000000000000000e+00 0.0000000000000000e+00 0.0000000000000000e+00
8.5999999999999996e+00 0.0000000000000000e+00 0.0000000000000000e+00
8.7000000000000011e+00 0.0000000000000000e+00 0.0000000000000000e+00
8.8000000000000007e+00 0.0000000000000000e+00 0.0000000000000000e+00
8.9000000000000004e+00 0.0000000000000000e+00 0.0000000000000000e+00
9.0000000000000000e+00 0.0000000000000000e+00 0.0000000000000000e+00
9.0999999999999996e+00 0.0000000000000000e+00 0.0000000000000000e+00
9.2000000000000011e+00 0.0000000000000000e+00 0.0000000000000000e+00
9.3000000000000007e+00 0.0000000000000000e+00 0.0000000000000000e+00
9.4000000000000004e+00 0.0000000000000000e+00 0.0000000000000000e+00
9.5000000000000000e+00 0.0000000000000000e+00 0.0000000000000000e+00
9.6000000000000014e+00 0.0000000000000000e+00 0.0000000000000000e+00
9.7000000000000011e+00 0.0000000000000000e+00 0.0000000000000000e+00
9.8000000000000007e+00 0.0000000000000000e+00 0.0000000000000000e+00
9.9000000000000004e+00 0.0000000000000000e+00 0.0000000000000000e+00
1.0000000000000000e+01 0.0000000000000000e+00 0.0000000000000000e+00

POINT_DATA 101

VECTORS velocity float
5.9271725562454716e+00 0.0000000000000000e+00 0.0000000000000000e+00
5.9265585000909864e+00 0.0000000000000000e+00 0.0000000000000000e+00
5.9259430872881431e+00 0.0000000000000000e+00 0.0000000000000000e+00
5.9253280287995418e+00 0.0000000000000000e+00 0.0000000000000000e+00
5.9247169286465482e+00 0.0000000000000000e+00 0.0000000000000000e+00
5.9241094947196666e+00 0.0000000000000000e+00 0.0000000000000000e+00
5.9235071047757941e+00 0.0000000000000000e+00 0.0000000000000000e+00
5.9229144751636538e+00 0.0000000000000000e+00 0.0000000000000000e+00
5.9223270820735117e+00 0.0000000000000000e+00 0.0000000000000000e+00
5.9217378627238535e+00 0.0000000000000000e+00 0.0000000000000000e+00
5.9211498532116531e+00 0.0000000000000000e+00 0.0000000000000000e+00
5.9205653785563168e+00 0.0000000000000000e+00 0.0000000000000000e+00
5.9199841992137330e+00 0.0000000000000000e+00 0.0000000000000000e+00
5.9194074106411723e+00 0.0000000000000000e+00 0.0000000000000000e+00
5.9188370110720392e+00 0.0000000000000000e+00 0.0000000000000000e+00
5.9182738835268305e+00 0.0000000000000000e+00 0.0000000000000000e+00
5.9177183359820562e+00 0.0000000000000000e+00 0.0000000000000000e+00
5.9171686188074757e+00 0.0000000000000000e+00 0.0000000000000000e+00
5.9166218380433415e+00 0.0000000000000000e+00 0.0000000000000000e+00
5.9160768431836832e+00 0.0000000000000000e+00 0.0000000000000000e+00
5.9155356546121913e+00 0.0000000000000000e+00 0.0000000000000000e+00
5.9150018319946520e+00 0.0000000000000000e+00 0.0000000000000000e+00
5.9144771568916328e+00 0.0000000000000000e+00 0.0000000000000000e+00
5.9139619682231546e+00 0.0000000000000000e+00 0.0000000000000000e+00
5.9134465258702384e+00 0.0000000000000000e+00 0.0000000000000000e+00
5.9129311180106647e+00 0.0000000000000000e+00 0.0000000000000000e+00
5.9124249899239301e+00 0.0000000000000000e+00 0.0000000000000000e+00
5.9119253343921301e+00 0.0000000000000000e+00 0.0000000000000000e+00
5.9114317486273436e+00 0.0000000000000000e+00 0.0000000000000000e+00
5.9109436811997362e+00 0.0000000000000000e+00 0.0000000000000000e+00
5.9104607253265717e+00 0.0000000000000000e+00 0.0000000000000000e+00
5.9099832295766452e+00 0.0000000000000000e+00 0.0000000000000000e+00
5.9095112641174312e+00 0.0000000000000000e+00 0.0000000000000000e+00
5.9090448298054863e+00 0.0000000000000000e+00 0.0000000000000000e+00
5.9085839489995831e+00 0.0000000000000000e+00 0.0000000000000000e+00
5.9081286293251241e+00 0.0000000000000000e+00 0.0000000000000000e+00
5.9076788944475274e+00 0.0000000000000000e+00 0.0000000000000000e+00
5.9072347319882565e+00 0.0000000000000000e+00 0.0000000000000000e+00
5.9067962274966259e+00 0.0000000000000000e+00 0.0000000000000000e+00
5.9063631286490326e+00 0.0000000000000000e+00 0.0000000000000000e+00
5.9059351862548581e+00 0.0000000000000000e+00 0.0000000000000000e+00
5.9055126708096504e+00 0.0000000000000000e+00 0.0000000000000000e+00
5.9050956419713261e+00 0.0000000000000000e+00 0.0000000000000000e+00
5.9046841363346809e+00 0.0000000000000000e+00 0.0000000000000000e+00
5.9042781779691547e+00 0.0000000000000000e+00 0.0000000000000000e+00
5.9038777838889622e+00 0.0000000000000000e+00 0.0000000000000000e+00
5.9034829678037282e+00 0.0000000000000000e+00 0.0000000000000000e+00
5.9030937415993581e+00 0.0000000000000000e+00 0.0000000000000000e+00
5.9027101163755091e+00 0.0000000000000000e+00 0.0000000000000000e+00
5.9023321017461274e+00 0.0000000000000000e+00 0.0000000000000000e+00
5.9019597061661457e+00 0.0000000000000000e+00 0.0000000000000000e+00
5.9015929382891708e+00 0.0000000000000000e+00 0.0000000000000000e+00
5.9012318070267593e+00 0.0000000000000000e+00 0.0000000000000000e+00
5.9008763205986554e+00 0.0000000000000000e+00 0.0000000000000000e+00
5.9005264871760739e+00 0.0000000000000000e+00 0.0000000000000000e+00
5.9001823154602286e+00 0.0000000000000000e+00 0.0000000000000000e+00
5.8998438121788910e+00 0.0000000000000000e+00 0.0000000000000000e+00
5.8995109845021965e+00 0.0000000000000000e+00 0.0000000000000000e+00
5.8991838410660726e+00 0.0000000000000000e+00 0.0000000000000000e+00
5.8988623893696275e+00 0.0000000000000000e+00 0.0000000000000000e+00
5.8985466365128030e+00 0.0000000000000000e+00 0.0000000000000000e+00
5.8982365892216553e+00 0.0000000000000000e+00 0.0000000000000000e+00
5.8979322540910495e+00 0.0000000000000000e+00 0.0000000000000000e+00
5.8976336374029188e+00 0.0000000000000000e+00 0.0000000000000000e+00
5.8973407454494362e+00 0.0000000000000000e+00 0.0000000000000000e+00
5.8970535845331167e+00 0.0000000000000000e+00 0.0000000000000000e+00
5.8967721605593786e+00 0.0000000000000000e+00 0.0000000000000000e+00
5.8964964795227166e+00 0.0000000000000000e+00 0.0000000000000000e+00
5.8962265472262017e+00 0.0000000000000000e+00 0.0000000000000000e+00
5.8959623691257370e+00 0.0000000000000000e+00 0.0000000000000000e+00
5.8957039505333242e+00 0.0000000000000000e+00 0.0000000000000000e+00
5.8954512965237384e+00 0.0000000000000000e+00 0.0000000000000000e+00
5.8952044120011502e+00 0.0000000000000000e+00 0.0000000000000000e+00
5.8949633018203187e+00 0.0000000000000000e+00 0.0000000000000000e+00
5.8947279705994360e+00 0.0000000000000000e+00 0.0000000000000000e+00
5.8944984225574180e+00 0.0000000000000000e+00 0.0000000000000000e+00
5.8942746624469731e+00 0.0000000000000000e+00 0.0000000000000000e+00
5.8940566937806196e+00 0.0000000000000000e+00 0.0000000000000000e+00
5.8938445208116397e+00 0.0000000000000000e+00 0.0000000000000000e+00
5.8936381480982885e+00 0.0000000000000000e+00 0.0000000000000000e+00
5.8934375780300696e+00 0.0000000000000000e+00 0.0000000000000000e+00
5.8932428136302750e+00 0.0000000000000000e+00 0.0000000000000000e+00
5.8930538579506120e+00 0.0000000000000000e+00 0.0000000000000000e+00
5.8928707164419185e+00 0.0000000000000000e+00 0.0000000000000000e+00
5.8926933909386463e+00 0.0000000000000000e+00 0.0000000000000000e+00
5.8925218805218096e+00 0.0000000000000000e+00 0.0000000000000000e+00
5.8923561865651672e+00 0.0000000000000000e+00 0.0000000000000000e+00
5.8921963156865456e+00 0.0000000000000000e+00 0.0000000000000000e+00
5.8920422717148133e+00 0.0000000000000000e+00 0.0000000000000000e+00
5.8918940557998267e+00 0.0000000000000000e+00 0.0000000000000000e+00
5.8917516679060835e+00 0.0000000000000000e+00 0.0000000000000000e+00
5.8916151079813233e+00 0.0000000000000000e+00 0.0000000000000000e+00
5.8914843761345006e+00 0.0000000000000000e+00 0.0000000000000000e+00
5.8913594856909439e+00 0.0000000000000000e+00 0.0000000000000000e+00
5.8912404087111252e+00 0.0000000000000000e+00 0.0000000000000000e+00
5.8911272163922233e+00 0.0000000000000000e+00 0.0000000000000000e+00
5.8910197266161672e+00 0.0000000000000000e+00 0.0000000000000000e+00
5.8909184127320291e+00 0.0000000000000000e+00 0.0000000000000000e+00
5.8908220549651071e+00 0.0000000000000000e+00 0.0000000000000000e+00
5.8907337991930957e+00 0.0000000000000000e+00 0.0000000000000000e+00
5.8906455434210843e+00 0.0000000000000000e+00 0.0000000000000000e+00


SCALARS pressure float
LOOKUP_TABLE default
-1.3734271400010879e+01
-1.3592847109615210e+01
-1.3451422819219543e+01
-1.3310052982080681e+01
-1.3168750592559951e+01
-1.3027529300275098e+01
-1.2886387151649455e+01
-1.2745325807263358e+01
-1.2604366378821023e+01
-1.2463495411901741e+01
-1.2322677957284274e+01
-1.2181917976505344e+01
-1.2041226376022029e+01
-1.1900604011706450e+01
-1.1760055829390813e+01
-1.1619592683493382e+01
-1.1479221814075466e+01
-1.1338948678646783e+01
-1.1198768818688659e+01
-1.1058667399820221e+01
-1.0918634188384633e+01
-1.0778675092149960e+01
-1.0638807615690945e+01
-1.0499045223138097e+01
-1.0359394596388704e+01
-1.0219813826315921e+01
-1.0080292411808998e+01
-9.9408690178739523e+00
-9.8015414430636358e+00
-9.6623075651745118e+00
-9.5231644898235928e+00
-9.3841097738500547e+00
-9.2451444028196086e+00
-9.1062690100562094e+00
-8.9674839211716559e+00
-8.8287894524229387e+00
-8.6901857807519445e+00
-8.5516731014156200e+00
-8.4132514268776113e+00
-8.2749211858445655e+00
-8.1366812725375315e+00
-7.9985300352906732e+00
-7.8604681029532815e+00
-7.7224957779157650e+00
-7.5846131839640458e+00
-7.4468203440998186e+00
-7.3091172221529197e+00
-7.1715037463810081e+00
-7.0339798202134247e+00
-6.8965453299789772e+00
-6.7592001442776208e+00
-6.6219441149392217e+00
-6.4847770832181872e+00
-6.3476988816323230e+00
-6.2107093300340566e+00
-6.0738082378744558e+00
-5.9369954075188165e+00
-5.8002706243914535e+00
-5.6636336648896481e+00
-5.5270843029381105e+00
-5.3906223005227840e+00
-5.2542474085380588e+00
-5.1179593668663870e+00
-4.9817579060176236e+00
-4.8456427471013894e+00
-4.7096136031817828e+00
-4.5736701796781540e+00
-4.4378121727883757e+00
-4.3020392713183506e+00
-4.1663511560237643e+00
-4.0307474988166927e+00
-3.8952279635957305e+00
-3.7597922060628757e+00
-3.6244398741704145e+00
-3.4891706090496322e+00
-3.3539840442941888e+00
-3.2188798057332910e+00
-3.0838575149526917e+00
-2.9489167831053602e+00
-2.8140572170991867e+00
-2.6792784199011801e+00
-2.5445799806831650e+00
-2.4099614840384755e+00
-2.2754225099387102e+00
-2.1409626438630522e+00
-2.0065814539609232e+00
-1.8722784878035055e+00
-1.7380532960998440e+00
-1.6039054491938729e+00
-1.4698345066780909e+00
-1.3358400113673041e+00
-1.2019214936815519e+00
-1.0680784787106679e+00
-9.3431048790584881e-01
-8.0061709829119942e-01
-6.6699771570600619e-01
-5.3345213820467274e-01
-3.9997914662286571e-01
-2.6658013771622319e-01
-1.3324976401466085e-01
0.0000000000000000e+00


SCALARS diameter float
LOOKUP_TABLE default
9.9875981278624948e-01
9.9877448948911607e-01
9.9878752776775304e-01
9.9880110928011934e-01
9.9881394862263673e-01
9.9882665624297406e-01
9.9883921026831712e-01
9.9885030042493594e-01
9.9886036898746478e-01
9.9887312044577214e-01
9.9888657850343321e-01
9.9889992114075388e-01
9.9891329769523696e-01
9.9892686952180698e-01
9.9893972678255971e-01
9.9895211656960470e-01
9.9896380682482000e-01
9.9897547816957777e-01
9.9898802164286993e-01
9.9900160191936072e-01
9.9901540506338704e-01
9.9902847297507202e-01
9.9904032192000258e-01
9.9905137176927628e-01
9.9906329742427669e-01
9.9907837178670167e-01
9.9909090640328069e-01
9.9910328747783472e-01
9.9911566234609783e-01
9.9912804402884736e-01
9.9914062078557542e-01
9.9915317721638464e-01
9.9916569776701403e-01
9.9917819192932267e-01
9.9919066883886898e-01
9.9920313303442843e-01
9.9921558435924285e-01
9.9922802340278771e-01
9.9924044937811274e-01
9.9925287449414324e-01
9.9926544622939062e-01
9.9927799994600230e-01
9.9929053753048169e-01
9.9930306001491276e-01
9.9931556795537546e-01
9.9932806185816536e-01
9.9934054208013634e-01
9.9935300892560863e-01
9.9936546236444901e-01
9.9937790264331949e-01
9.9939033020497758e-01
9.9940274540833673e-01
9.9941514824765743e-01
9.9942753902581039e-01
9.9943991795642917e-01
9.9945228508009243e-01
9.9946464067563068e-01
9.9947698547365205e-01
9.9948931901860338e-01
9.9950164157076238e-01
9.9951395335761617e-01
9.9952625468343348e-01
9.9953854576602019e-01
9.9955082681670659e-01
9.9956309811576616e-01
9.9957535975459066e-01
9.9958761200857227e-01
9.9959985504149440e-01
9.9961208901028431e-01
9.9962431414528741e-01
9.9963653067383673e-01
9.9964873878716753e-01
9.9966093873433426e-01
9.9967313064500618e-01
9.9968531473610256e-01
9.9969749121908869e-01
9.9970966024966346e-01
9.9972182198643522e-01
9.9973397685385335e-01
9.9974612454550182e-01
9.9975826554459224e-01
9.9977040040329113e-01
9.9978252897312792e-01
9.9979465132520906e-01
9.9980676697181281e-01
9.9981887811072823e-01
9.9983098449728836e-01
9.9984308575854763e-01
9.9985518064321455e-01
9.9986727064984315e-01
9.9987935574567921e-01
9.9989143725985674e-01
9.9990351481364048e-01
9.9991558732550345e-01
9.9992765618050139e-01
9.9993972148221444e-01
9.9995178330695322e-01
9.9996384190583132e-01
9.9997589720225843e-01
9.9998794966099525e-01
1.0000000000016658e+00


SCALARS iters float
LOOKUP_TABLE default
5.0000000000000000e+00
5.0000000000000000e+00
5.0000000000000000e+00
5.0000000000000000e+00
5.0000000000000000e+00
5.0000000000000000e+00
5.0000000000000000e+00
5.0000000000000000e+00
5.0000000000000000e+00
5.0000000000000000e+00
5.0000000000000000e+00
5.0000000000000000e+00
5.0000000000000000e+00
5.0000000000000000e+00
5.0000000000000000e+00
5.0000000000000000e+00
5.0000000000000000e+00
5.0000000000000000e+00
5.0000000000000000e+00
5.0000000000000000e+00
5.0000000000000000e+00
5.0000000000000000e+00
5.0000000000000000e+00
5.0000000000000000e+00
5.0000000000000000e+00
5.0000000000000000e+00
5.0000000000000000e+00
5.0000000000000000e+00
5.0000000000000000e+00
5.0000000000000000e+00
5.0000000000000000e+00
5.0000000000000000e+00
5.0000000000000000e+00
5.0000000000000000e+00
5.0000000000000000e+00
5.0000000000000000e+00
5.0000000000000000e+00
5.0000000000000000e+00
5.0000000000000000e+00
5.0000000000000000e+00
5.0000000000000000e+00
5.0000000000000000e+00
5.0000000000000000e+00
5.0000000000000000e+00
5.0000000000000000e+00
5.0000000000000000e+00
5.0000000000000000e+00
5.0000000000000000e+00
5.0000000000000000e+00
5.0000000000000000e+00
5.0000000000000000e+00
5.0000000000000000e+00
5.0000000000000000e+00
5.0000000000000000e+00
5.0000000000000000e+00
5.0000000000000000e+00
5.0000000000000000e+00
5.0000000000000000e+00
5.0000000000000000e+00
5.0000000000000000e+00
5.0000000000000000e+00
5.0000000000000000e+00
5.0000000000000000e+00
5.0000000000000000e+00
5.0000000000000000e+00
5.0000000000000000e+00
5.0000000000000000e+00
5.0000000000000000e+00
5.0000000000000000e+00
5.0000000000000000e+00
5.0000000000000000e+00
5.0000000000000000e+00
5.0000000000000000e+00
5.0000000000000000e+00
5.0000000000000000e+00
5.0000000000000000e+00
5.0000000000000000e+00
5.0000000000000000e+00
5.0000000000000000e+00
5.0000000000000000e+00
5.0000000000000000e+00
5.0000000000000000e+00
5.0000000000000000e+00
5.0000000000000000e+00
5.0000000000000000e+00
5.0000000000000000e+00
5.0000000000000000e+00
5.0000000000000000e+00
5.0000000000000000e+00
5.0000000000000000e+00
5.0000000000000000e+00
5.0000000000000000e+00
5.0000000000000000e+00
5.0000000000000000e+00
5.0000000000000000e+00
5.0000000000000000e+00
5.0000000000000000e+00
5.0000000000000000e+00
5.0000000000000000e+00
5.0000000000000000e+00
5.0000000000000000e+00


