# vtk DataFile Version 2.0

ASCII

DATASET UNSTRUCTURED_GRID

POINTS 101 float

0.0000000000000000e+00 0.0000000000000000e+00 0.0000000000000000e+00
1.0000000000000001e-01 0.0000000000000000e+00 0.0000000000000000e+00
2.0000000000000001e-01 0.0000000000000000e+00 0.0000000000000000e+00
3.0000000000000004e-01 0.0000000000000000e+00 0.0000000000000000e+00
4.0000000000000002e-01 0.0000000000000000e+00 0.0000000000000000e+00
5.0000000000000000e-01 0.0000000000000000e+00 0.0000000000000000e+00
6.0000000000000009e-01 0.0000000000000000e+00 0.0000000000000000e+00
7.0000000000000007e-01 0.0000000000000000e+00 0.0000000000000000e+00
8.0000000000000004e-01 0.0000000000000000e+00 0.0000000000000000e+00
9.0000000000000002e-01 0.0000000000000000e+00 0.0000000000000000e+00
1.0000000000000000e+00 0.0000000000000000e+00 0.0000000000000000e+00
1.1000000000000001e+00 0.0000000000000000e+00 0.0000000000000000e+00
1.2000000000000002e+00 0.0000000000000000e+00 0.0000000000000000e+00
1.3000000000000000e+00 0.0000000000000000e+00 0.0000000000000000e+00
1.4000000000000001e+00 0.0000000000000000e+00 0.0000000000000000e+00
1.5000000000000000e+00 0.0000000000000000e+00 0.0000000000000000e+00
1.6000000000000001e+00 0.0000000000000000e+00 0.0000000000000000e+00
1.7000000000000002e+00 0.0000000000000000e+00 0.0000000000000000e+00
1.8000000000000000e+00 0.0000000000000000e+00 0.0000000000000000e+00
1.9000000000000001e+00 0.0000000000000000e+00 0.0000000000000000e+00
2.0000000000000000e+00 0.0000000000000000e+00 0.0000000000000000e+00
2.1000000000000001e+00 0.0000000000000000e+00 0.0000000000000000e+00
2.2000000000000002e+00 0.0000000000000000e+00 0.0000000000000000e+00
2.3000000000000003e+00 0.0000000000000000e+00 0.0000000000000000e+00
2.4000000000000004e+00 0.0000000000000000e+00 0.0000000000000000e+00
2.5000000000000000e+00 0.0000000000000000e+00 0.0000000000000000e+00
2.6000000000000001e+00 0.0000000000000000e+00 0.0000000000000000e+00
2.7000000000000002e+00 0.0000000000000000e+00 0.0000000000000000e+00
2.8000000000000003e+00 0.0000000000000000e+00 0.0000000000000000e+00
2.9000000000000004e+00 0.0000000000000000e+00 0.0000000000000000e+00
3.0000000000000000e+00 0.0000000000000000e+00 0.0000000000000000e+00
3.1000000000000001e+00 0.0000000000000000e+00 0.0000000000000000e+00
3.2000000000000002e+00 0.0000000000000000e+00 0.0000000000000000e+00
3.3000000000000003e+00 0.0000000000000000e+00 0.0000000000000000e+00
3.4000000000000004e+00 0.0000000000000000e+00 0.0000000000000000e+00
3.5000000000000000e+00 0.0000000000000000e+00 0.0000000000000000e+00
3.6000000000000001e+00 0.0000000000000000e+00 0.0000000000000000e+00
3.7000000000000002e+00 0.0000000000000000e+00 0.0000000000000000e+00
3.8000000000000003e+00 0.0000000000000000e+00 0.0000000000000000e+00
3.9000000000000004e+00 0.0000000000000000e+00 0.0000000000000000e+00
4.0000000000000000e+00 0.0000000000000000e+00 0.0000000000000000e+00
4.1000000000000005e+00 0.0000000000000000e+00 0.0000000000000000e+00
4.2000000000000002e+00 0.0000000000000000e+00 0.0000000000000000e+00
4.2999999999999998e+00 0.0000000000000000e+00 0.0000000000000000e+00
4.4000000000000004e+00 0.0000000000000000e+00 0.0000000000000000e+00
4.5000000000000000e+00 0.0000000000000000e+00 0.0000000000000000e+00
4.6000000000000005e+00 0.0000000000000000e+00 0.0000000000000000e+00
4.7000000000000002e+00 0.0000000000000000e+00 0.0000000000000000e+00
4.8000000000000007e+00 0.0000000000000000e+00 0.0000000000000000e+00
4.9000000000000004e+00 0.0000000000000000e+00 0.0000000000000000e+00
5.0000000000000000e+00 0.0000000000000000e+00 0.0000000000000000e+00
5.1000000000000005e+00 0.0000000000000000e+00 0.0000000000000000e+00
5.2000000000000002e+00 0.0000000000000000e+00 0.0000000000000000e+00
5.3000000000000007e+00 0.0000000000000000e+00 0.0000000000000000e+00
5.4000000000000004e+00 0.0000000000000000e+00 0.0000000000000000e+00
5.5000000000000000e+00 0.0000000000000000e+00 0.0000000000000000e+00
5.6000000000000005e+00 0.0000000000000000e+00 0.0000000000000000e+00
5.7000000000000002e+00 0.0000000000000000e+00 0.0000000000000000e+00
5.8000000000000007e+00 0.0000000000000000e+00 0.0000000000000000e+00
5.9000000000000004e+00 0.0000000000000000e+00 0.0000000000000000e+00
6.0000000000000000e+00 0.0000000000000000e+00 0.0000000000000000e+00
6.1000000000000005e+00 0.0000000000000000e+00 0.0000000000000000e+00
6.2000000000000002e+00 0.0000000000000000e+00 0.0000000000000000e+00
6.3000000000000007e+00 0.0000000000000000e+00 0.0000000000000000e+00
6.4000000000000004e+00 0.0000000000000000e+00 0.0000000000000000e+00
6.5000000000000000e+00 0.0000000000000000e+00 0.0000000000000000e+00
6.6000000000000005e+00 0.0000000000000000e+00 0.0000000000000000e+00
6.7000000000000002e+00 0.0000000000000000e+00 0.0000000000000000e+00
6.8000000000000007e+00 0.0000000000000000e+00 0.0000000000000000e+00
6.9000000000000004e+00 0.0000000000000000e+00 0.0000000000000000e+00
7.0000000000000000e+00 0.0000000000000000e+00 0.0000000000000000e+00
7.1000000000000005e+00 0.0000000000000000e+00 0.0000000000000000e+00
7.2000000000000002e+00 0.0000000000000000e+00 0.0000000000000000e+00
7.3000000000000007e+00 0.0000000000000000e+00 0.0000000000000000e+00
7.4000000000000004e+00 0.0000000000000000e+00 0.0000000000000000e+00
7.5000000000000000e+00 0.0000000000000000e+00 0.0000000000000000e+00
7.6000000000000005e+00 0.0000000000000000e+00 0.0000000000000000e+00
7.7000000000000002e+00 0.0000000000000000e+00 0.0000000000000000e+00
7.8000000000000007e+00 0.0000000000000000e+00 0.0000000000000000e+00
7.9000000000000004e+00 0.0000000000000000e+00 0.0000000000000000e+00
8.0000000000000000e+00 0.0000000000000000e+00 0.0000000000000000e+00
8.0999999999999996e+00 0.0000000000000000e+00 0.0000000000000000e+00
8.2000000000000011e+00 0.0000000000000000e+00 0.0000000000000000e+00
8.3000000000000007e+00 0.0000000000000000e+00 0.0000000000000000e+00
8.4000000000000004e+00 0.0000000000000000e+00 0.0000000000000000e+00
8.5000000000000000e+00 0.0000000000000000e+00 0.0000000000000000e+00
8.5999999999999996e+00 0.0000000000000000e+00 0.0000000000000000e+00
8.7000000000000011e+00 0.0000000000000000e+00 0.0000000000000000e+00
8.8000000000000007e+00 0.0000000000000000e+00 0.0000000000000000e+00
8.9000000000000004e+00 0.0000000000000000e+00 0.0000000000000000e+00
9.0000000000000000e+00 0.0000000000000000e+00 0.0000000000000000e+00
9.0999999999999996e+00 0.0000000000000000e+00 0.0000000000000000e+00
9.2000000000000011e+00 0.0000000000000000e+00 0.0000000000000000e+00
9.3000000000000007e+00 0.0000000000000000e+00 0.0000000000000000e+00
9.4000000000000004e+00 0.0000000000000000e+00 0.0000000000000000e+00
9.5000000000000000e+00 0.0000000000000000e+00 0.0000000000000000e+00
9.6000000000000014e+00 0.0000000000000000e+00 0.0000000000000000e+00
9.7000000000000011e+00 0.0000000000000000e+00 0.0000000000000000e+00
9.8000000000000007e+00 0.0000000000000000e+00 0.0000000000000000e+00
9.9000000000000004e+00 0.0000000000000000e+00 0.0000000000000000e+00
1.0000000000000000e+01 0.0000000000000000e+00 0.0000000000000000e+00

POINT_DATA 101

VECTORS velocity float
6.9344979010119685e+00 0.0000000000000000e+00 0.0000000000000000e+00
6.9345579251240244e+00 0.0000000000000000e+00 0.0000000000000000e+00
6.9346148899906934e+00 0.0000000000000000e+00 0.0000000000000000e+00
6.9346671246558422e+00 0.0000000000000000e+00 0.0000000000000000e+00
6.9347157226265370e+00 0.0000000000000000e+00 0.0000000000000000e+00
6.9347636029265409e+00 0.0000000000000000e+00 0.0000000000000000e+00
6.9348148426623295e+00 0.0000000000000000e+00 0.0000000000000000e+00
6.9348695747825273e+00 0.0000000000000000e+00 0.0000000000000000e+00
6.9349228682163160e+00 0.0000000000000000e+00 0.0000000000000000e+00
6.9349719659341309e+00 0.0000000000000000e+00 0.0000000000000000e+00
6.9350186842321593e+00 0.0000000000000000e+00 0.0000000000000000e+00
6.9350640244590718e+00 0.0000000000000000e+00 0.0000000000000000e+00
6.9351093632405378e+00 0.0000000000000000e+00 0.0000000000000000e+00
6.9351577274701324e+00 0.0000000000000000e+00 0.0000000000000000e+00
6.9352091548105683e+00 0.0000000000000000e+00 0.0000000000000000e+00
6.9352625646888688e+00 0.0000000000000000e+00 0.0000000000000000e+00
6.9353139085816577e+00 0.0000000000000000e+00 0.0000000000000000e+00
6.9353607596748219e+00 0.0000000000000000e+00 0.0000000000000000e+00
6.9354064913452920e+00 0.0000000000000000e+00 0.0000000000000000e+00
6.9354523439327949e+00 0.0000000000000000e+00 0.0000000000000000e+00
6.9354978264796854e+00 0.0000000000000000e+00 0.0000000000000000e+00
6.9355433065321987e+00 0.0000000000000000e+00 0.0000000000000000e+00
6.9355895425040623e+00 0.0000000000000000e+00 0.0000000000000000e+00
6.9356370142630208e+00 0.0000000000000000e+00 0.0000000000000000e+00
6.9356862744630270e+00 0.0000000000000000e+00 0.0000000000000000e+00
6.9357352340540528e+00 0.0000000000000000e+00 0.0000000000000000e+00
6.9357829235706276e+00 0.0000000000000000e+00 0.0000000000000000e+00
6.9358301835899399e+00 0.0000000000000000e+00 0.0000000000000000e+00
6.9358773089212127e+00 0.0000000000000000e+00 0.0000000000000000e+00
6.9359234850555778e+00 0.0000000000000000e+00 0.0000000000000000e+00
6.9359682887944203e+00 0.0000000000000000e+00 0.0000000000000000e+00
6.9360123832937415e+00 0.0000000000000000e+00 0.0000000000000000e+00
6.9360565045604501e+00 0.0000000000000000e+00 0.0000000000000000e+00
6.9361014331115260e+00 0.0000000000000000e+00 0.0000000000000000e+00
6.9361467984488412e+00 0.0000000000000000e+00 0.0000000000000000e+00
6.9361922724279133e+00 0.0000000000000000e+00 0.0000000000000000e+00
6.9362377668394677e+00 0.0000000000000000e+00 0.0000000000000000e+00
6.9362831934290892e+00 0.0000000000000000e+00 0.0000000000000000e+00
6.9363285810785156e+00 0.0000000000000000e+00 0.0000000000000000e+00
6.9363736841050132e+00 0.0000000000000000e+00 0.0000000000000000e+00
6.9364183747113364e+00 0.0000000000000000e+00 0.0000000000000000e+00
6.9364628559413166e+00 0.0000000000000000e+00 0.0000000000000000e+00
6.9365071662351614e+00 0.0000000000000000e+00 0.0000000000000000e+00
6.9365513299941508e+00 0.0000000000000000e+00 0.0000000000000000e+00
6.9365953629169192e+00 0.0000000000000000e+00 0.0000000000000000e+00
6.9366392748961134e+00 0.0000000000000000e+00 0.0000000000000000e+00
6.9366830722839312e+00 0.0000000000000000e+00 0.0000000000000000e+00
6.9367267586794190e+00 0.0000000000000000e+00 0.0000000000000000e+00
6.9367703372912235e+00 0.0000000000000000e+00 0.0000000000000000e+00
6.9368138101645300e+00 0.0000000000000000e+00 0.0000000000000000e+00
6.9368571780461714e+00 0.0000000000000000e+00 0.0000000000000000e+00
6.9369004423100842e+00 0.0000000000000000e+00 0.0000000000000000e+00
6.9369436033362666e+00 0.0000000000000000e+00 0.0000000000000000e+00
6.9369866612794393e+00 0.0000000000000000e+00 0.0000000000000000e+00
6.9370296168439802e+00 0.0000000000000000e+00 0.0000000000000000e+00
6.9370724705942743e+00 0.0000000000000000e+00 0.0000000000000000e+00
6.9371152221614594e+00 0.0000000000000000e+00 0.0000000000000000e+00
6.9371578717828610e+00 0.0000000000000000e+00 0.0000000000000000e+00
6.9372004204348716e+00 0.0000000000000000e+00 0.0000000000000000e+00
6.9372428681592746e+00 0.0000000000000000e+00 0.0000000000000000e+00
6.9372852149193287e+00 0.0000000000000000e+00 0.0000000000000000e+00
6.9373274612700175e+00 0.0000000000000000e+00 0.0000000000000000e+00
6.9373696075402007e+00 0.0000000000000000e+00 0.0000000000000000e+00
6.9374116535276498e+00 0.0000000000000000e+00 0.0000000000000000e+00
6.9374535993955941e+00 0.0000000000000000e+00 0.0000000000000000e+00
6.9374954453479303e+00 0.0000000000000000e+00 0.0000000000000000e+00
6.9375371914579747e+00 0.0000000000000000e+00 0.0000000000000000e+00
6.9375788380021470e+00 0.0000000000000000e+00 0.0000000000000000e+00
6.9376203851828713e+00 0.0000000000000000e+00 0.0000000000000000e+00
6.9376618330739648e+00 0.0000000000000000e+00 0.0000000000000000e+00
6.9377031817854826e+00 0.0000000000000000e+00 0.0000000000000000e+00
6.9377444314822290e+00 0.0000000000000000e+00 0.0000000000000000e+00
6.9377855822746142e+00 0.0000000000000000e+00 0.0000000000000000e+00
6.9378266342510111e+00 0.0000000000000000e+00 0.0000000000000000e+00
6.9378675875527005e+00 0.0000000000000000e+00 0.0000000000000000e+00
6.9379084420982009e+00 0.0000000000000000e+00 0.0000000000000000e+00
6.9379491981579555e+00 0.0000000000000000e+00 0.0000000000000000e+00
6.9379898555583024e+00 0.0000000000000000e+00 0.0000000000000000e+00
6.9380304145693623e+00 0.0000000000000000e+00 0.0000000000000000e+00
6.9380708756576919e+00 0.0000000000000000e+00 0.0000000000000000e+00
6.9381112385534944e+00 0.0000000000000000e+00 0.0000000000000000e+00
6.9381515033004755e+00 0.0000000000000000e+00 0.0000000000000000e+00
6.9381916698284236e+00 0.0000000000000000e+00 0.0000000000000000e+00
6.9382317386193684e+00 0.0000000000000000e+00 0.0000000000000000e+00
6.9382717094375836e+00 0.0000000000000000e+00 0.0000000000000000e+00
6.9383115818758609e+00 0.0000000000000000e+00 0.0000000000000000e+00
6.9383513562079262e+00 0.0000000000000000e+00 0.0000000000000000e+00
6.9383910318033317e+00 0.0000000000000000e+00 0.0000000000000000e+00
6.9384306090197096e+00 0.0000000000000000e+00 0.0000000000000000e+00
6.9384700876825427e+00 0.0000000000000000e+00 0.0000000000000000e+00
6.9385094695417076e+00 0.0000000000000000e+00 0.0000000000000000e+00
6.9385487539718076e+00 0.0000000000000000e+00 0.0000000000000000e+00
6.9385879399473342e+00 0.0000000000000000e+00 0.0000000000000000e+00
6.9386270285400391e+00 0.0000000000000000e+00 0.0000000000000000e+00
6.9386660185630653e+00 0.0000000000000000e+00 0.0000000000000000e+00
6.9387049099683944e+00 0.0000000000000000e+00 0.0000000000000000e+00
6.9387437034411645e+00 0.0000000000000000e+00 0.0000000000000000e+00
6.9387823955907999e+00 0.0000000000000000e+00 0.0000000000000000e+00
6.9388209979847097e+00 0.0000000000000000e+00 0.0000000000000000e+00
6.9388594703671087e+00 0.0000000000000000e+00 0.0000000000000000e+00
6.9388979427495077e+00 0.0000000000000000e+00 0.0000000000000000e+00


SCALARS pressure float
LOOKUP_TABLE default
6.0621128204456474e+00
6.0023920404988580e+00
5.9426712605520677e+00
5.8829422976305166e+00
5.8232111587863908e+00
5.7634753140147916e+00
5.7037207956521936e+00
5.6439244255081737e+00
5.5840781466355329e+00
5.5242024461566386e+00
5.4643171698421771e+00
5.4044206299875279e+00
5.3445078119592964e+00
5.2845708840689198e+00
5.2245934599608548e+00
5.1645702350484886e+00
5.1045047014498417e+00
5.0444170103160779e+00
4.9843252382252494e+00
4.9242199232475743e+00
4.8640924888634300e+00
4.8039426364833187e+00
4.7437687160706261e+00
4.6835667809536430e+00
4.6233334109655884e+00
4.5630652962596470e+00
4.5027713676222678e+00
4.4424591510179186e+00
4.3821273949834962e+00
4.3217745084742365e+00
4.2614039659837673e+00
4.2010190884519947e+00
4.1406180968787458e+00
4.0801972091240666e+00
4.0197518039518769e+00
3.9592823233382850e+00
3.8987906691471848e+00
3.8382781071630299e+00
3.7777456876415045e+00
3.7171938578827581e+00
3.6566240960473770e+00
3.5960376163289856e+00
3.5354340585875401e+00
3.4748133171519915e+00
3.4141754401283997e+00
3.3535205696685892e+00
3.2928489077942547e+00
3.2321606940080145e+00
3.1714561939045418e+00
3.1107356842058547e+00
3.0499994513354807e+00
2.9892477914895852e+00
2.9284810016680454e+00
2.8676993842209142e+00
2.8069032447555382e+00
2.7460928878300992e+00
2.6852686187165151e+00
2.6244307476900346e+00
2.5635795842632016e+00
2.5027154346496192e+00
2.4418386087094976e+00
2.3809494182517250e+00
2.3200481733609926e+00
2.2591351849797472e+00
2.1982107671639382e+00
2.1372752336509429e+00
2.0763288982350692e+00
2.0153720756795797e+00
1.9544050804595174e+00
1.8934282276288830e+00
1.8324418333547345e+00
1.7714462143182992e+00
1.7104416874289130e+00
1.6494285702283698e+00
1.5884071808650115e+00
1.5273778377332321e+00
1.4663408606257404e+00
1.4052965684330423e+00
1.3442452820878852e+00
1.2831873213951819e+00
1.2221230051269896e+00
1.1610526553947118e+00
1.0999765942019641e+00
1.0388951442835055e+00
9.7780862624569143e-01
9.1671736356192701e-01
8.5562168172292674e-01
7.9452190393541511e-01
7.3341835698593161e-01
6.7231136442369177e-01
6.1120125142852733e-01
5.5008833497285392e-01
4.8897294063222879e-01
4.2785539867827044e-01
3.6673603156493889e-01
3.0561516925330440e-01
2.4449314072495529e-01
1.8337026657120525e-01
1.2224689726169073e-01
6.1123285550740078e-02
0.0000000000000000e+00


SCALARS diameter float
LOOKUP_TABLE default
1.0005479859893092e+00
1.0005421267531778e+00
1.0005360760055104e+00
1.0005309506428239e+00
1.0005262974658722e+00
1.0005216441031310e+00
1.0005159837740845e+00
1.0005093261446822e+00
1.0005029798017955e+00
1.0004979326118477e+00
1.0004932936888580e+00
1.0004886585404540e+00
1.0004839528298279e+00
1.0004784990251021e+00
1.0004721705221022e+00
1.0004656962137242e+00
1.0004594503735660e+00
1.0004546868368069e+00
1.0004499393238424e+00
1.0004448674547384e+00
1.0004397301277796e+00
1.0004346260357617e+00
1.0004292457374893e+00
1.0004236349156013e+00
1.0004176300689611e+00
1.0004116118349720e+00
1.0004061191502176e+00
1.0004005997420373e+00
1.0003950816262461e+00
1.0003895978818316e+00
1.0003845027399707e+00
1.0003794009038272e+00
1.0003742759727465e+00
1.0003688426865849e+00
1.0003632883715770e+00
1.0003577338850365e+00
1.0003521787073844e+00
1.0003466227620430e+00
1.0003410659635514e+00
1.0003355149842503e+00
1.0003300603341874e+00
1.0003246014533929e+00
1.0003191394068580e+00
1.0003136747256038e+00
1.0003082076001273e+00
1.0003027381895537e+00
1.0002972666215268e+00
1.0002917930381012e+00
1.0002863175474603e+00
1.0002808398985366e+00
1.0002753604921524e+00
1.0002698791747080e+00
1.0002643960261484e+00
1.0002589112552169e+00
1.0002534248058967e+00
1.0002479366474708e+00
1.0002424469499638e+00
1.0002369559046027e+00
1.0002314632444551e+00
1.0002259690844948e+00
1.0002204735876457e+00
1.0002149767228450e+00
1.0002094784452367e+00
1.0002039789364223e+00
1.0001984782668545e+00
1.0001929764154642e+00
1.0001874734789971e+00
1.0001819694609175e+00
1.0001764643851345e+00
1.0001709583176324e+00
1.0001654513153042e+00
1.0001599434037116e+00
1.0001544346255298e+00
1.0001489250310447e+00
1.0001434146556389e+00
1.0001379035564097e+00
1.0001323917953595e+00
1.0001268793461788e+00
1.0001213663891519e+00
1.0001158526728573e+00
1.0001103384561900e+00
1.0001048237282575e+00
1.0000993085712799e+00
1.0000937929460509e+00
1.0000882768378381e+00
1.0000827605435063e+00
1.0000772439276424e+00
1.0000717271396935e+00
1.0000662102783189e+00
1.0000606931502973e+00
1.0000551758428711e+00
1.0000496578209026e+00
1.0000441402519160e+00
1.0000386222048645e+00
1.0000331043538686e+00
1.0000275865528170e+00
1.0000220688546009e+00
1.0000165512880868e+00
1.0000110339107324e+00
1.0000055168092674e+00
9.9999999999359401e-01


SCALARS iters float
LOOKUP_TABLE default
3.0000000000000000e+00
3.0000000000000000e+00
3.0000000000000000e+00
3.0000000000000000e+00
3.0000000000000000e+00
3.0000000000000000e+00
3.0000000000000000e+00
3.0000000000000000e+00
3.0000000000000000e+00
3.0000000000000000e+00
3.0000000000000000e+00
3.0000000000000000e+00
3.0000000000000000e+00
3.0000000000000000e+00
3.0000000000000000e+00
3.0000000000000000e+00
3.0000000000000000e+00
3.0000000000000000e+00
3.0000000000000000e+00
3.0000000000000000e+00
3.0000000000000000e+00
3.0000000000000000e+00
3.0000000000000000e+00
3.0000000000000000e+00
3.0000000000000000e+00
3.0000000000000000e+00
3.0000000000000000e+00
3.0000000000000000e+00
3.0000000000000000e+00
3.0000000000000000e+00
3.0000000000000000e+00
3.0000000000000000e+00
3.0000000000000000e+00
3.0000000000000000e+00
3.0000000000000000e+00
3.0000000000000000e+00
3.0000000000000000e+00
3.0000000000000000e+00
3.0000000000000000e+00
3.0000000000000000e+00
3.0000000000000000e+00
3.0000000000000000e+00
3.0000000000000000e+00
3.0000000000000000e+00
3.0000000000000000e+00
3.0000000000000000e+00
3.0000000000000000e+00
3.0000000000000000e+00
3.0000000000000000e+00
3.0000000000000000e+00
3.0000000000000000e+00
3.0000000000000000e+00
3.0000000000000000e+00
3.0000000000000000e+00
3.0000000000000000e+00
3.0000000000000000e+00
3.0000000000000000e+00
3.0000000000000000e+00
3.0000000000000000e+00
3.0000000000000000e+00
3.0000000000000000e+00
3.0000000000000000e+00
3.0000000000000000e+00
3.0000000000000000e+00
3.0000000000000000e+00
3.0000000000000000e+00
3.0000000000000000e+00
3.0000000000000000e+00
3.0000000000000000e+00
3.0000000000000000e+00
3.0000000000000000e+00
3.0000000000000000e+00
3.0000000000000000e+00
3.0000000000000000e+00
3.0000000000000000e+00
3.0000000000000000e+00
3.0000000000000000e+00
3.0000000000000000e+00
3.0000000000000000e+00
3.0000000000000000e+00
3.0000000000000000e+00
3.0000000000000000e+00
3.0000000000000000e+00
3.0000000000000000e+00
3.0000000000000000e+00
3.0000000000000000e+00
3.0000000000000000e+00
3.0000000000000000e+00
3.0000000000000000e+00
3.0000000000000000e+00
3.0000000000000000e+00
3.0000000000000000e+00
3.0000000000000000e+00
3.0000000000000000e+00
3.0000000000000000e+00
3.0000000000000000e+00
3.0000000000000000e+00
3.0000000000000000e+00
3.0000000000000000e+00
3.0000000000000000e+00
3.0000000000000000e+00


