# vtk DataFile Version 2.0

ASCII

DATASET UNSTRUCTURED_GRID

POINTS 101 float

0.0000000000000000e+00 0.0000000000000000e+00 0.0000000000000000e+00
1.0000000000000001e-01 0.0000000000000000e+00 0.0000000000000000e+00
2.0000000000000001e-01 0.0000000000000000e+00 0.0000000000000000e+00
3.0000000000000004e-01 0.0000000000000000e+00 0.0000000000000000e+00
4.0000000000000002e-01 0.0000000000000000e+00 0.0000000000000000e+00
5.0000000000000000e-01 0.0000000000000000e+00 0.0000000000000000e+00
6.0000000000000009e-01 0.0000000000000000e+00 0.0000000000000000e+00
7.0000000000000007e-01 0.0000000000000000e+00 0.0000000000000000e+00
8.0000000000000004e-01 0.0000000000000000e+00 0.0000000000000000e+00
9.0000000000000002e-01 0.0000000000000000e+00 0.0000000000000000e+00
1.0000000000000000e+00 0.0000000000000000e+00 0.0000000000000000e+00
1.1000000000000001e+00 0.0000000000000000e+00 0.0000000000000000e+00
1.2000000000000002e+00 0.0000000000000000e+00 0.0000000000000000e+00
1.3000000000000000e+00 0.0000000000000000e+00 0.0000000000000000e+00
1.4000000000000001e+00 0.0000000000000000e+00 0.0000000000000000e+00
1.5000000000000000e+00 0.0000000000000000e+00 0.0000000000000000e+00
1.6000000000000001e+00 0.0000000000000000e+00 0.0000000000000000e+00
1.7000000000000002e+00 0.0000000000000000e+00 0.0000000000000000e+00
1.8000000000000000e+00 0.0000000000000000e+00 0.0000000000000000e+00
1.9000000000000001e+00 0.0000000000000000e+00 0.0000000000000000e+00
2.0000000000000000e+00 0.0000000000000000e+00 0.0000000000000000e+00
2.1000000000000001e+00 0.0000000000000000e+00 0.0000000000000000e+00
2.2000000000000002e+00 0.0000000000000000e+00 0.0000000000000000e+00
2.3000000000000003e+00 0.0000000000000000e+00 0.0000000000000000e+00
2.4000000000000004e+00 0.0000000000000000e+00 0.0000000000000000e+00
2.5000000000000000e+00 0.0000000000000000e+00 0.0000000000000000e+00
2.6000000000000001e+00 0.0000000000000000e+00 0.0000000000000000e+00
2.7000000000000002e+00 0.0000000000000000e+00 0.0000000000000000e+00
2.8000000000000003e+00 0.0000000000000000e+00 0.0000000000000000e+00
2.9000000000000004e+00 0.0000000000000000e+00 0.0000000000000000e+00
3.0000000000000000e+00 0.0000000000000000e+00 0.0000000000000000e+00
3.1000000000000001e+00 0.0000000000000000e+00 0.0000000000000000e+00
3.2000000000000002e+00 0.0000000000000000e+00 0.0000000000000000e+00
3.3000000000000003e+00 0.0000000000000000e+00 0.0000000000000000e+00
3.4000000000000004e+00 0.0000000000000000e+00 0.0000000000000000e+00
3.5000000000000000e+00 0.0000000000000000e+00 0.0000000000000000e+00
3.6000000000000001e+00 0.0000000000000000e+00 0.0000000000000000e+00
3.7000000000000002e+00 0.0000000000000000e+00 0.0000000000000000e+00
3.8000000000000003e+00 0.0000000000000000e+00 0.0000000000000000e+00
3.9000000000000004e+00 0.0000000000000000e+00 0.0000000000000000e+00
4.0000000000000000e+00 0.0000000000000000e+00 0.0000000000000000e+00
4.1000000000000005e+00 0.0000000000000000e+00 0.0000000000000000e+00
4.2000000000000002e+00 0.0000000000000000e+00 0.0000000000000000e+00
4.2999999999999998e+00 0.0000000000000000e+00 0.0000000000000000e+00
4.4000000000000004e+00 0.0000000000000000e+00 0.0000000000000000e+00
4.5000000000000000e+00 0.0000000000000000e+00 0.0000000000000000e+00
4.6000000000000005e+00 0.0000000000000000e+00 0.0000000000000000e+00
4.7000000000000002e+00 0.0000000000000000e+00 0.0000000000000000e+00
4.8000000000000007e+00 0.0000000000000000e+00 0.0000000000000000e+00
4.9000000000000004e+00 0.0000000000000000e+00 0.0000000000000000e+00
5.0000000000000000e+00 0.0000000000000000e+00 0.0000000000000000e+00
5.1000000000000005e+00 0.0000000000000000e+00 0.0000000000000000e+00
5.2000000000000002e+00 0.0000000000000000e+00 0.0000000000000000e+00
5.3000000000000007e+00 0.0000000000000000e+00 0.0000000000000000e+00
5.4000000000000004e+00 0.0000000000000000e+00 0.0000000000000000e+00
5.5000000000000000e+00 0.0000000000000000e+00 0.0000000000000000e+00
5.6000000000000005e+00 0.0000000000000000e+00 0.0000000000000000e+00
5.7000000000000002e+00 0.0000000000000000e+00 0.0000000000000000e+00
5.8000000000000007e+00 0.0000000000000000e+00 0.0000000000000000e+00
5.9000000000000004e+00 0.0000000000000000e+00 0.0000000000000000e+00
6.0000000000000000e+00 0.0000000000000000e+00 0.0000000000000000e+00
6.1000000000000005e+00 0.0000000000000000e+00 0.0000000000000000e+00
6.2000000000000002e+00 0.0000000000000000e+00 0.0000000000000000e+00
6.3000000000000007e+00 0.0000000000000000e+00 0.0000000000000000e+00
6.4000000000000004e+00 0.0000000000000000e+00 0.0000000000000000e+00
6.5000000000000000e+00 0.0000000000000000e+00 0.0000000000000000e+00
6.6000000000000005e+00 0.0000000000000000e+00 0.0000000000000000e+00
6.7000000000000002e+00 0.0000000000000000e+00 0.0000000000000000e+00
6.8000000000000007e+00 0.0000000000000000e+00 0.0000000000000000e+00
6.9000000000000004e+00 0.0000000000000000e+00 0.0000000000000000e+00
7.0000000000000000e+00 0.0000000000000000e+00 0.0000000000000000e+00
7.1000000000000005e+00 0.0000000000000000e+00 0.0000000000000000e+00
7.2000000000000002e+00 0.0000000000000000e+00 0.0000000000000000e+00
7.3000000000000007e+00 0.0000000000000000e+00 0.0000000000000000e+00
7.4000000000000004e+00 0.0000000000000000e+00 0.0000000000000000e+00
7.5000000000000000e+00 0.0000000000000000e+00 0.0000000000000000e+00
7.6000000000000005e+00 0.0000000000000000e+00 0.0000000000000000e+00
7.7000000000000002e+00 0.0000000000000000e+00 0.0000000000000000e+00
7.8000000000000007e+00 0.0000000000000000e+00 0.0000000000000000e+00
7.9000000000000004e+00 0.0000000000000000e+00 0.0000000000000000e+00
8.0000000000000000e+00 0.0000000000000000e+00 0.0000000000000000e+00
8.0999999999999996e+00 0.0000000000000000e+00 0.0000000000000000e+00
8.2000000000000011e+00 0.0000000000000000e+00 0.0000000000000000e+00
8.3000000000000007e+00 0.0000000000000000e+00 0.0000000000000000e+00
8.4000000000000004e+00 0.0000000000000000e+00 0.0000000000000000e+00
8.5000000000000000e+00 0.0000000000000000e+00 0.0000000000000000e+00
8.5999999999999996e+00 0.0000000000000000e+00 0.0000000000000000e+00
8.7000000000000011e+00 0.0000000000000000e+00 0.0000000000000000e+00
8.8000000000000007e+00 0.0000000000000000e+00 0.0000000000000000e+00
8.9000000000000004e+00 0.0000000000000000e+00 0.0000000000000000e+00
9.0000000000000000e+00 0.0000000000000000e+00 0.0000000000000000e+00
9.0999999999999996e+00 0.0000000000000000e+00 0.0000000000000000e+00
9.2000000000000011e+00 0.0000000000000000e+00 0.0000000000000000e+00
9.3000000000000007e+00 0.0000000000000000e+00 0.0000000000000000e+00
9.4000000000000004e+00 0.0000000000000000e+00 0.0000000000000000e+00
9.5000000000000000e+00 0.0000000000000000e+00 0.0000000000000000e+00
9.6000000000000014e+00 0.0000000000000000e+00 0.0000000000000000e+00
9.7000000000000011e+00 0.0000000000000000e+00 0.0000000000000000e+00
9.8000000000000007e+00 0.0000000000000000e+00 0.0000000000000000e+00
9.9000000000000004e+00 0.0000000000000000e+00 0.0000000000000000e+00
1.0000000000000000e+01 0.0000000000000000e+00 0.0000000000000000e+00

POINT_DATA 101

VECTORS velocity float
6.6664554895452630e+00 0.0000000000000000e+00 0.0000000000000000e+00
6.6662703676381225e+00 0.0000000000000000e+00 0.0000000000000000e+00
6.6660866850359133e+00 0.0000000000000000e+00 0.0000000000000000e+00
6.6659019034039719e+00 0.0000000000000000e+00 0.0000000000000000e+00
6.6657168291536824e+00 0.0000000000000000e+00 0.0000000000000000e+00
6.6655338414644172e+00 0.0000000000000000e+00 0.0000000000000000e+00
6.6653563983140627e+00 0.0000000000000000e+00 0.0000000000000000e+00
6.6651850967315394e+00 0.0000000000000000e+00 0.0000000000000000e+00
6.6650150395623964e+00 0.0000000000000000e+00 0.0000000000000000e+00
6.6648430772308611e+00 0.0000000000000000e+00 0.0000000000000000e+00
6.6646711197380606e+00 0.0000000000000000e+00 0.0000000000000000e+00
6.6645002953844870e+00 0.0000000000000000e+00 0.0000000000000000e+00
6.6643316957345693e+00 0.0000000000000000e+00 0.0000000000000000e+00
6.6641679373169884e+00 0.0000000000000000e+00 0.0000000000000000e+00
6.6640093359600705e+00 0.0000000000000000e+00 0.0000000000000000e+00
6.6638551030799675e+00 0.0000000000000000e+00 0.0000000000000000e+00
6.6637014474094300e+00 0.0000000000000000e+00 0.0000000000000000e+00
6.6635458842825299e+00 0.0000000000000000e+00 0.0000000000000000e+00
6.6633914261587357e+00 0.0000000000000000e+00 0.0000000000000000e+00
6.6632392643784435e+00 0.0000000000000000e+00 0.0000000000000000e+00
6.6630891485937314e+00 0.0000000000000000e+00 0.0000000000000000e+00
6.6629416908935575e+00 0.0000000000000000e+00 0.0000000000000000e+00
6.6627977931730111e+00 0.0000000000000000e+00 0.0000000000000000e+00
6.6626579372709616e+00 0.0000000000000000e+00 0.0000000000000000e+00
6.6625215996058298e+00 0.0000000000000000e+00 0.0000000000000000e+00
6.6623867652725783e+00 0.0000000000000000e+00 0.0000000000000000e+00
6.6622534018051613e+00 0.0000000000000000e+00 0.0000000000000000e+00
6.6621220741465352e+00 0.0000000000000000e+00 0.0000000000000000e+00
6.6619930543301269e+00 0.0000000000000000e+00 0.0000000000000000e+00
6.6618655980216808e+00 0.0000000000000000e+00 0.0000000000000000e+00
6.6617393192449086e+00 0.0000000000000000e+00 0.0000000000000000e+00
6.6616148222831013e+00 0.0000000000000000e+00 0.0000000000000000e+00
6.6614928707706982e+00 0.0000000000000000e+00 0.0000000000000000e+00
6.6613742765742856e+00 0.0000000000000000e+00 0.0000000000000000e+00
6.6612586545913901e+00 0.0000000000000000e+00 0.0000000000000000e+00
6.6611456545472745e+00 0.0000000000000000e+00 0.0000000000000000e+00
6.6610351915106571e+00 0.0000000000000000e+00 0.0000000000000000e+00
6.6609271445188218e+00 0.0000000000000000e+00 0.0000000000000000e+00
6.6608216234183129e+00 0.0000000000000000e+00 0.0000000000000000e+00
6.6607181082461775e+00 0.0000000000000000e+00 0.0000000000000000e+00
6.6606162387969370e+00 0.0000000000000000e+00 0.0000000000000000e+00
6.6605164825065559e+00 0.0000000000000000e+00 0.0000000000000000e+00
6.6604189307626323e+00 0.0000000000000000e+00 0.0000000000000000e+00
6.6603236400414927e+00 0.0000000000000000e+00 0.0000000000000000e+00
6.6602306459107616e+00 0.0000000000000000e+00 0.0000000000000000e+00
6.6601399708800351e+00 0.0000000000000000e+00 0.0000000000000000e+00
6.6600516295076426e+00 0.0000000000000000e+00 0.0000000000000000e+00
6.6599656309609312e+00 0.0000000000000000e+00 0.0000000000000000e+00
6.6598819824823785e+00 0.0000000000000000e+00 0.0000000000000000e+00
6.6598006892657651e+00 0.0000000000000000e+00 0.0000000000000000e+00
6.6597217545839831e+00 0.0000000000000000e+00 0.0000000000000000e+00
6.6596451820186280e+00 0.0000000000000000e+00 0.0000000000000000e+00
6.6595709739619249e+00 0.0000000000000000e+00 0.0000000000000000e+00
6.6594991323652639e+00 0.0000000000000000e+00 0.0000000000000000e+00
6.6594296596659373e+00 0.0000000000000000e+00 0.0000000000000000e+00
6.6593625581715665e+00 0.0000000000000000e+00 0.0000000000000000e+00
6.6592978291540019e+00 0.0000000000000000e+00 0.0000000000000000e+00
6.6592354743833511e+00 0.0000000000000000e+00 0.0000000000000000e+00
6.6591754963824679e+00 0.0000000000000000e+00 0.0000000000000000e+00
6.6591178967141449e+00 0.0000000000000000e+00 0.0000000000000000e+00
6.6590626767874515e+00 0.0000000000000000e+00 0.0000000000000000e+00
6.6590098385386192e+00 0.0000000000000000e+00 0.0000000000000000e+00
6.6589593836915180e+00 0.0000000000000000e+00 0.0000000000000000e+00
6.6589113134151976e+00 0.0000000000000000e+00 0.0000000000000000e+00
6.6588656291916113e+00 0.0000000000000000e+00 0.0000000000000000e+00
6.6588223325153146e+00 0.0000000000000000e+00 0.0000000000000000e+00
6.6587814247084669e+00 0.0000000000000000e+00 0.0000000000000000e+00
6.6587429072670883e+00 0.0000000000000000e+00 0.0000000000000000e+00
6.6587067815728140e+00 0.0000000000000000e+00 0.0000000000000000e+00
6.6586730488321573e+00 0.0000000000000000e+00 0.0000000000000000e+00
6.6586417102650612e+00 0.0000000000000000e+00 0.0000000000000000e+00
6.6586127671009923e+00 0.0000000000000000e+00 0.0000000000000000e+00
6.6585862204948203e+00 0.0000000000000000e+00 0.0000000000000000e+00
6.6585620715405689e+00 0.0000000000000000e+00 0.0000000000000000e+00
6.6585403213253329e+00 0.0000000000000000e+00 0.0000000000000000e+00
6.6585209707323587e+00 0.0000000000000000e+00 0.0000000000000000e+00
6.6585040208989392e+00 0.0000000000000000e+00 0.0000000000000000e+00
6.6584894725428674e+00 0.0000000000000000e+00 0.0000000000000000e+00
6.6584773267031467e+00 0.0000000000000000e+00 0.0000000000000000e+00
6.6584675846000207e+00 0.0000000000000000e+00 0.0000000000000000e+00
6.6584602467894891e+00 0.0000000000000000e+00 0.0000000000000000e+00
6.6584553140002400e+00 0.0000000000000000e+00 0.0000000000000000e+00
6.6584527868507104e+00 0.0000000000000000e+00 0.0000000000000000e+00
6.6584526664471211e+00 0.0000000000000000e+00 0.0000000000000000e+00
6.6584549532317538e+00 0.0000000000000000e+00 0.0000000000000000e+00
6.6584596472945163e+00 0.0000000000000000e+00 0.0000000000000000e+00
6.6584667494633001e+00 0.0000000000000000e+00 0.0000000000000000e+00
6.6584762598705263e+00 0.0000000000000000e+00 0.0000000000000000e+00
6.6584881792217088e+00 0.0000000000000000e+00 0.0000000000000000e+00
6.6585025077949878e+00 0.0000000000000000e+00 0.0000000000000000e+00
6.6585192473272565e+00 0.0000000000000000e+00 0.0000000000000000e+00
6.6585383981287629e+00 0.0000000000000000e+00 0.0000000000000000e+00
6.6585599584182340e+00 0.0000000000000000e+00 0.0000000000000000e+00
6.6585839330201875e+00 0.0000000000000000e+00 0.0000000000000000e+00
6.6586103114513486e+00 0.0000000000000000e+00 0.0000000000000000e+00
6.6586391192564989e+00 0.0000000000000000e+00 0.0000000000000000e+00
6.6586702894997245e+00 0.0000000000000000e+00 0.0000000000000000e+00
6.6587040002107756e+00 0.0000000000000000e+00 0.0000000000000000e+00
6.6587397788440628e+00 0.0000000000000000e+00 0.0000000000000000e+00
6.6587788779664798e+00 0.0000000000000000e+00 0.0000000000000000e+00
6.6588179770888969e+00 0.0000000000000000e+00 0.0000000000000000e+00


SCALARS pressure float
LOOKUP_TABLE default
7.6843855678339397e+00
7.6075716264456545e+00
7.5307576850573694e+00
7.4539522292725389e+00
7.3771711498334076e+00
7.3004165166428248e+00
7.2236785002410091e+00
7.1469385408990425e+00
7.0701879516011132e+00
6.9934461398636669e+00
6.9167333290763127e+00
6.8400467431711682e+00
6.7633800126232897e+00
6.6867258827235325e+00
6.6100699110047429e+00
6.5334059276400014e+00
6.4567352760243333e+00
6.3800754590795830e+00
6.3034430800772050e+00
6.2268292968127730e+00
6.1502256840184719e+00
6.0736304620378947e+00
5.9970398335665704e+00
5.9204479151371761e+00
5.8438500786041150e+00
5.7672473533246995e+00
5.6906493037928421e+00
5.6140585539875962e+00
5.5374729867447465e+00
5.4608903657918786e+00
5.3843130956946581e+00
5.3077433686595281e+00
5.2311787787555515e+00
5.1546147427666744e+00
5.0780457741579044e+00
5.0014715996206300e+00
4.9248934149560633e+00
4.8483116556901784e+00
4.7717266917606649e+00
4.6951378021133685e+00
4.6185468601835860e+00
4.5419558313413626e+00
4.4653628815470130e+00
4.3887667113457933e+00
4.3121663433636890e+00
4.2355609935086651e+00
4.1589499959274283e+00
4.0823327569451049e+00
4.0057087295022065e+00
3.9290773895139242e+00
3.8524382292880621e+00
3.7757907550474159e+00
3.6991344759492679e+00
3.6224689076513115e+00
3.5457935700467149e+00
3.4691079822756494e+00
3.3924116639674189e+00
3.3157041398281213e+00
3.2389849340644976e+00
3.1622535674709238e+00
3.0855095643772898e+00
3.0087524511313188e+00
2.9319817524911818e+00
2.8551969938810751e+00
2.7783977036688281e+00
2.7015834098937712e+00
2.6247536406308467e+00
2.5479079249516126e+00
2.4710457916348947e+00
2.3941667700929665e+00
2.3172703909429089e+00
2.2403561853088072e+00
2.1634236846258759e+00
2.0864724209570809e+00
2.0095019270435857e+00
1.9325117360798374e+00
1.8555013825191637e+00
1.7784704002687777e+00
1.7014183251614008e+00
1.6243446923940308e+00
1.5472490363581846e+00
1.4701308943728923e+00
1.3929898040908231e+00
1.3158253039774719e+00
1.2386369307815894e+00
1.1614242238883810e+00
1.0841867252939916e+00
1.0069239745929539e+00
9.2963551397674249e-01
8.5232088412038609e-01
7.7497962743227689e-01
6.9761128045248033e-01
6.2021538441640622e-01
5.4279149198308618e-01
4.6533912875502859e-01
3.8785788400056431e-01
3.1034719750574014e-01
2.3280689771945332e-01
1.5523578321897621e-01
7.7635385920974548e-02
0.0000000000000000e+00


SCALARS diameter float
LOOKUP_TABLE default
1.0006965738133555e+00
1.0006885887887944e+00
1.0006806008920339e+00
1.0006737018360143e+00
1.0006673109552300e+00
1.0006609108817228e+00
1.0006536358177234e+00
1.0006453326962570e+00
1.0006372330043205e+00
1.0006305634823287e+00
1.0006243161488995e+00
1.0006180619564182e+00
1.0006117459929298e+00
1.0006048290884295e+00
1.0005970851555182e+00
1.0005891597906627e+00
1.0005814236872059e+00
1.0005751518023105e+00
1.0005689439712278e+00
1.0005624681410215e+00
1.0005559249793354e+00
1.0005493474413274e+00
1.0005424027149628e+00
1.0005351503225599e+00
1.0005276179301752e+00
1.0005203761481867e+00
1.0005134592159268e+00
1.0005065052226279e+00
1.0004995497882763e+00
1.0004926239520073e+00
1.0004860664978619e+00
1.0004794983602032e+00
1.0004728971626942e+00
1.0004659567128305e+00
1.0004588832804848e+00
1.0004518067493071e+00
1.0004447264715099e+00
1.0004376423235812e+00
1.0004305542265106e+00
1.0004234779899921e+00
1.0004166417534825e+00
1.0004097984809581e+00
1.0004029491731490e+00
1.0003960944602233e+00
1.0003892345804388e+00
1.0003823697270005e+00
1.0003755000642032e+00
1.0003686258003261e+00
1.0003617470836146e+00
1.0003548636886253e+00
1.0003479760739631e+00
1.0003410841279003e+00
1.0003341879617897e+00
1.0003272878491829e+00
1.0003203837747257e+00
1.0003134757329806e+00
1.0003065639281135e+00
1.0002996486231033e+00
1.0002927295749757e+00
1.0002858069395111e+00
1.0002788809268890e+00
1.0002719515561498e+00
1.0002650188206486e+00
1.0002580829402825e+00
1.0002511440296702e+00
1.0002442021056595e+00
1.0002372573096761e+00
1.0002303096856819e+00
1.0002233592976819e+00
1.0002164062591397e+00
1.0002094506686590e+00
1.0002024925928057e+00
1.0001955321190183e+00
1.0001885693340415e+00
1.0001816043252558e+00
1.0001746371846154e+00
1.0001676680157883e+00
1.0001606968430274e+00
1.0001537238755744e+00
1.0001467489441989e+00
1.0001397722941736e+00
1.0001327939973443e+00
1.0001258141544360e+00
1.0001188327922601e+00
1.0001118499057895e+00
1.0001048658528815e+00
1.0000978805700913e+00
1.0000908941661846e+00
1.0000839068168799e+00
1.0000769183951934e+00
1.0000699290514299e+00
1.0000629383033250e+00
1.0000559472859838e+00
1.0000489551287490e+00
1.0000419625856418e+00
1.0000349695557478e+00
1.0000279761113666e+00
1.0000209823321595e+00
1.0000139883243346e+00
1.0000069942455407e+00
1.0000000000480982e+00


SCALARS iters float
LOOKUP_TABLE default
3.0000000000000000e+00
3.0000000000000000e+00
3.0000000000000000e+00
3.0000000000000000e+00
3.0000000000000000e+00
3.0000000000000000e+00
3.0000000000000000e+00
3.0000000000000000e+00
3.0000000000000000e+00
3.0000000000000000e+00
3.0000000000000000e+00
3.0000000000000000e+00
3.0000000000000000e+00
3.0000000000000000e+00
3.0000000000000000e+00
3.0000000000000000e+00
3.0000000000000000e+00
3.0000000000000000e+00
3.0000000000000000e+00
3.0000000000000000e+00
3.0000000000000000e+00
3.0000000000000000e+00
3.0000000000000000e+00
3.0000000000000000e+00
3.0000000000000000e+00
3.0000000000000000e+00
3.0000000000000000e+00
3.0000000000000000e+00
3.0000000000000000e+00
3.0000000000000000e+00
3.0000000000000000e+00
3.0000000000000000e+00
3.0000000000000000e+00
3.0000000000000000e+00
3.0000000000000000e+00
3.0000000000000000e+00
3.0000000000000000e+00
3.0000000000000000e+00
3.0000000000000000e+00
3.0000000000000000e+00
3.0000000000000000e+00
3.0000000000000000e+00
3.0000000000000000e+00
3.0000000000000000e+00
3.0000000000000000e+00
3.0000000000000000e+00
3.0000000000000000e+00
3.0000000000000000e+00
3.0000000000000000e+00
3.0000000000000000e+00
3.0000000000000000e+00
3.0000000000000000e+00
3.0000000000000000e+00
3.0000000000000000e+00
3.0000000000000000e+00
3.0000000000000000e+00
3.0000000000000000e+00
3.0000000000000000e+00
3.0000000000000000e+00
3.0000000000000000e+00
3.0000000000000000e+00
3.0000000000000000e+00
3.0000000000000000e+00
3.0000000000000000e+00
3.0000000000000000e+00
3.0000000000000000e+00
3.0000000000000000e+00
3.0000000000000000e+00
3.0000000000000000e+00
3.0000000000000000e+00
3.0000000000000000e+00
3.0000000000000000e+00
3.0000000000000000e+00
3.0000000000000000e+00
3.0000000000000000e+00
3.0000000000000000e+00
3.0000000000000000e+00
3.0000000000000000e+00
3.0000000000000000e+00
3.0000000000000000e+00
3.0000000000000000e+00
3.0000000000000000e+00
3.0000000000000000e+00
3.0000000000000000e+00
3.0000000000000000e+00
3.0000000000000000e+00
3.0000000000000000e+00
3.0000000000000000e+00
3.0000000000000000e+00
3.0000000000000000e+00
3.0000000000000000e+00
3.0000000000000000e+00
3.0000000000000000e+00
3.0000000000000000e+00
3.0000000000000000e+00
3.0000000000000000e+00
3.0000000000000000e+00
3.0000000000000000e+00
3.0000000000000000e+00
3.0000000000000000e+00
3.0000000000000000e+00


