# vtk DataFile Version 2.0

ASCII

DATASET UNSTRUCTURED_GRID

POINTS 101 float

0.0000000000000000e+00 0.0000000000000000e+00 0.0000000000000000e+00
1.0000000000000001e-01 0.0000000000000000e+00 0.0000000000000000e+00
2.0000000000000001e-01 0.0000000000000000e+00 0.0000000000000000e+00
3.0000000000000004e-01 0.0000000000000000e+00 0.0000000000000000e+00
4.0000000000000002e-01 0.0000000000000000e+00 0.0000000000000000e+00
5.0000000000000000e-01 0.0000000000000000e+00 0.0000000000000000e+00
6.0000000000000009e-01 0.0000000000000000e+00 0.0000000000000000e+00
7.0000000000000007e-01 0.0000000000000000e+00 0.0000000000000000e+00
8.0000000000000004e-01 0.0000000000000000e+00 0.0000000000000000e+00
9.0000000000000002e-01 0.0000000000000000e+00 0.0000000000000000e+00
1.0000000000000000e+00 0.0000000000000000e+00 0.0000000000000000e+00
1.1000000000000001e+00 0.0000000000000000e+00 0.0000000000000000e+00
1.2000000000000002e+00 0.0000000000000000e+00 0.0000000000000000e+00
1.3000000000000000e+00 0.0000000000000000e+00 0.0000000000000000e+00
1.4000000000000001e+00 0.0000000000000000e+00 0.0000000000000000e+00
1.5000000000000000e+00 0.0000000000000000e+00 0.0000000000000000e+00
1.6000000000000001e+00 0.0000000000000000e+00 0.0000000000000000e+00
1.7000000000000002e+00 0.0000000000000000e+00 0.0000000000000000e+00
1.8000000000000000e+00 0.0000000000000000e+00 0.0000000000000000e+00
1.9000000000000001e+00 0.0000000000000000e+00 0.0000000000000000e+00
2.0000000000000000e+00 0.0000000000000000e+00 0.0000000000000000e+00
2.1000000000000001e+00 0.0000000000000000e+00 0.0000000000000000e+00
2.2000000000000002e+00 0.0000000000000000e+00 0.0000000000000000e+00
2.3000000000000003e+00 0.0000000000000000e+00 0.0000000000000000e+00
2.4000000000000004e+00 0.0000000000000000e+00 0.0000000000000000e+00
2.5000000000000000e+00 0.0000000000000000e+00 0.0000000000000000e+00
2.6000000000000001e+00 0.0000000000000000e+00 0.0000000000000000e+00
2.7000000000000002e+00 0.0000000000000000e+00 0.0000000000000000e+00
2.8000000000000003e+00 0.0000000000000000e+00 0.0000000000000000e+00
2.9000000000000004e+00 0.0000000000000000e+00 0.0000000000000000e+00
3.0000000000000000e+00 0.0000000000000000e+00 0.0000000000000000e+00
3.1000000000000001e+00 0.0000000000000000e+00 0.0000000000000000e+00
3.2000000000000002e+00 0.0000000000000000e+00 0.0000000000000000e+00
3.3000000000000003e+00 0.0000000000000000e+00 0.0000000000000000e+00
3.4000000000000004e+00 0.0000000000000000e+00 0.0000000000000000e+00
3.5000000000000000e+00 0.0000000000000000e+00 0.0000000000000000e+00
3.6000000000000001e+00 0.0000000000000000e+00 0.0000000000000000e+00
3.7000000000000002e+00 0.0000000000000000e+00 0.0000000000000000e+00
3.8000000000000003e+00 0.0000000000000000e+00 0.0000000000000000e+00
3.9000000000000004e+00 0.0000000000000000e+00 0.0000000000000000e+00
4.0000000000000000e+00 0.0000000000000000e+00 0.0000000000000000e+00
4.1000000000000005e+00 0.0000000000000000e+00 0.0000000000000000e+00
4.2000000000000002e+00 0.0000000000000000e+00 0.0000000000000000e+00
4.2999999999999998e+00 0.0000000000000000e+00 0.0000000000000000e+00
4.4000000000000004e+00 0.0000000000000000e+00 0.0000000000000000e+00
4.5000000000000000e+00 0.0000000000000000e+00 0.0000000000000000e+00
4.6000000000000005e+00 0.0000000000000000e+00 0.0000000000000000e+00
4.7000000000000002e+00 0.0000000000000000e+00 0.0000000000000000e+00
4.8000000000000007e+00 0.0000000000000000e+00 0.0000000000000000e+00
4.9000000000000004e+00 0.0000000000000000e+00 0.0000000000000000e+00
5.0000000000000000e+00 0.0000000000000000e+00 0.0000000000000000e+00
5.1000000000000005e+00 0.0000000000000000e+00 0.0000000000000000e+00
5.2000000000000002e+00 0.0000000000000000e+00 0.0000000000000000e+00
5.3000000000000007e+00 0.0000000000000000e+00 0.0000000000000000e+00
5.4000000000000004e+00 0.0000000000000000e+00 0.0000000000000000e+00
5.5000000000000000e+00 0.0000000000000000e+00 0.0000000000000000e+00
5.6000000000000005e+00 0.0000000000000000e+00 0.0000000000000000e+00
5.7000000000000002e+00 0.0000000000000000e+00 0.0000000000000000e+00
5.8000000000000007e+00 0.0000000000000000e+00 0.0000000000000000e+00
5.9000000000000004e+00 0.0000000000000000e+00 0.0000000000000000e+00
6.0000000000000000e+00 0.0000000000000000e+00 0.0000000000000000e+00
6.1000000000000005e+00 0.0000000000000000e+00 0.0000000000000000e+00
6.2000000000000002e+00 0.0000000000000000e+00 0.0000000000000000e+00
6.3000000000000007e+00 0.0000000000000000e+00 0.0000000000000000e+00
6.4000000000000004e+00 0.0000000000000000e+00 0.0000000000000000e+00
6.5000000000000000e+00 0.0000000000000000e+00 0.0000000000000000e+00
6.6000000000000005e+00 0.0000000000000000e+00 0.0000000000000000e+00
6.7000000000000002e+00 0.0000000000000000e+00 0.0000000000000000e+00
6.8000000000000007e+00 0.0000000000000000e+00 0.0000000000000000e+00
6.9000000000000004e+00 0.0000000000000000e+00 0.0000000000000000e+00
7.0000000000000000e+00 0.0000000000000000e+00 0.0000000000000000e+00
7.1000000000000005e+00 0.0000000000000000e+00 0.0000000000000000e+00
7.2000000000000002e+00 0.0000000000000000e+00 0.0000000000000000e+00
7.3000000000000007e+00 0.0000000000000000e+00 0.0000000000000000e+00
7.4000000000000004e+00 0.0000000000000000e+00 0.0000000000000000e+00
7.5000000000000000e+00 0.0000000000000000e+00 0.0000000000000000e+00
7.6000000000000005e+00 0.0000000000000000e+00 0.0000000000000000e+00
7.7000000000000002e+00 0.0000000000000000e+00 0.0000000000000000e+00
7.8000000000000007e+00 0.0000000000000000e+00 0.0000000000000000e+00
7.9000000000000004e+00 0.0000000000000000e+00 0.0000000000000000e+00
8.0000000000000000e+00 0.0000000000000000e+00 0.0000000000000000e+00
8.0999999999999996e+00 0.0000000000000000e+00 0.0000000000000000e+00
8.2000000000000011e+00 0.0000000000000000e+00 0.0000000000000000e+00
8.3000000000000007e+00 0.0000000000000000e+00 0.0000000000000000e+00
8.4000000000000004e+00 0.0000000000000000e+00 0.0000000000000000e+00
8.5000000000000000e+00 0.0000000000000000e+00 0.0000000000000000e+00
8.5999999999999996e+00 0.0000000000000000e+00 0.0000000000000000e+00
8.7000000000000011e+00 0.0000000000000000e+00 0.0000000000000000e+00
8.8000000000000007e+00 0.0000000000000000e+00 0.0000000000000000e+00
8.9000000000000004e+00 0.0000000000000000e+00 0.0000000000000000e+00
9.0000000000000000e+00 0.0000000000000000e+00 0.0000000000000000e+00
9.0999999999999996e+00 0.0000000000000000e+00 0.0000000000000000e+00
9.2000000000000011e+00 0.0000000000000000e+00 0.0000000000000000e+00
9.3000000000000007e+00 0.0000000000000000e+00 0.0000000000000000e+00
9.4000000000000004e+00 0.0000000000000000e+00 0.0000000000000000e+00
9.5000000000000000e+00 0.0000000000000000e+00 0.0000000000000000e+00
9.6000000000000014e+00 0.0000000000000000e+00 0.0000000000000000e+00
9.7000000000000011e+00 0.0000000000000000e+00 0.0000000000000000e+00
9.8000000000000007e+00 0.0000000000000000e+00 0.0000000000000000e+00
9.9000000000000004e+00 0.0000000000000000e+00 0.0000000000000000e+00
1.0000000000000000e+01 0.0000000000000000e+00 0.0000000000000000e+00

POINT_DATA 101

VECTORS velocity float
5.4247850559862947e+00 0.0000000000000000e+00 0.0000000000000000e+00
5.4247311858437159e+00 0.0000000000000000e+00 0.0000000000000000e+00
5.4246017304533298e+00 0.0000000000000000e+00 0.0000000000000000e+00
5.4244233854340456e+00 0.0000000000000000e+00 0.0000000000000000e+00
5.4242187385548695e+00 0.0000000000000000e+00 0.0000000000000000e+00
5.4239997410831435e+00 0.0000000000000000e+00 0.0000000000000000e+00
5.4237718637362580e+00 0.0000000000000000e+00 0.0000000000000000e+00
5.4235482970838449e+00 0.0000000000000000e+00 0.0000000000000000e+00
5.4233306688400269e+00 0.0000000000000000e+00 0.0000000000000000e+00
5.4231125337428736e+00 0.0000000000000000e+00 0.0000000000000000e+00
5.4228956233415806e+00 0.0000000000000000e+00 0.0000000000000000e+00
5.4226811492748261e+00 0.0000000000000000e+00 0.0000000000000000e+00
5.4224688062093804e+00 0.0000000000000000e+00 0.0000000000000000e+00
5.4222611058553909e+00 0.0000000000000000e+00 0.0000000000000000e+00
5.4220601176921264e+00 0.0000000000000000e+00 0.0000000000000000e+00
5.4218666171073044e+00 0.0000000000000000e+00 0.0000000000000000e+00
5.4216801402498955e+00 0.0000000000000000e+00 0.0000000000000000e+00
5.4214973966471511e+00 0.0000000000000000e+00 0.0000000000000000e+00
5.4213153554322178e+00 0.0000000000000000e+00 0.0000000000000000e+00
5.4211335420612272e+00 0.0000000000000000e+00 0.0000000000000000e+00
5.4209544576370972e+00 0.0000000000000000e+00 0.0000000000000000e+00
5.4207815052633475e+00 0.0000000000000000e+00 0.0000000000000000e+00
5.4206184283038974e+00 0.0000000000000000e+00 0.0000000000000000e+00
5.4204665019274998e+00 0.0000000000000000e+00 0.0000000000000000e+00
5.4203123859376321e+00 0.0000000000000000e+00 0.0000000000000000e+00
5.4201554711260016e+00 0.0000000000000000e+00 0.0000000000000000e+00
5.4200063909261615e+00 0.0000000000000000e+00 0.0000000000000000e+00
5.4198624883544060e+00 0.0000000000000000e+00 0.0000000000000000e+00
5.4197234419939999e+00 0.0000000000000000e+00 0.0000000000000000e+00
5.4195884503793366e+00 0.0000000000000000e+00 0.0000000000000000e+00
5.4194570595654721e+00 0.0000000000000000e+00 0.0000000000000000e+00
5.4193297117213701e+00 0.0000000000000000e+00 0.0000000000000000e+00
5.4192066688364235e+00 0.0000000000000000e+00 0.0000000000000000e+00
5.4190883589782128e+00 0.0000000000000000e+00 0.0000000000000000e+00
5.4189746942844881e+00 0.0000000000000000e+00 0.0000000000000000e+00
5.4188654069741000e+00 0.0000000000000000e+00 0.0000000000000000e+00
5.4187604357042076e+00 0.0000000000000000e+00 0.0000000000000000e+00
5.4186596852047355e+00 0.0000000000000000e+00 0.0000000000000000e+00
5.4185632487709032e+00 0.0000000000000000e+00 0.0000000000000000e+00
5.4184707638671767e+00 0.0000000000000000e+00 0.0000000000000000e+00
5.4183821174427758e+00 0.0000000000000000e+00 0.0000000000000000e+00
5.4182976472921789e+00 0.0000000000000000e+00 0.0000000000000000e+00
5.4182174670282892e+00 0.0000000000000000e+00 0.0000000000000000e+00
5.4181416396378692e+00 0.0000000000000000e+00 0.0000000000000000e+00
5.4180702018706830e+00 0.0000000000000000e+00 0.0000000000000000e+00
5.4180031755005977e+00 0.0000000000000000e+00 0.0000000000000000e+00
5.4179405717875984e+00 0.0000000000000000e+00 0.0000000000000000e+00
5.4178823942771759e+00 0.0000000000000000e+00 0.0000000000000000e+00
5.4178286456318148e+00 0.0000000000000000e+00 0.0000000000000000e+00
5.4177793270946024e+00 0.0000000000000000e+00 0.0000000000000000e+00
5.4177344373564251e+00 0.0000000000000000e+00 0.0000000000000000e+00
5.4176939760942888e+00 0.0000000000000000e+00 0.0000000000000000e+00
5.4176579414962074e+00 0.0000000000000000e+00 0.0000000000000000e+00
5.4176263305376802e+00 0.0000000000000000e+00 0.0000000000000000e+00
5.4175991414795313e+00 0.0000000000000000e+00 0.0000000000000000e+00
5.4175763735040050e+00 0.0000000000000000e+00 0.0000000000000000e+00
5.4175580244284109e+00 0.0000000000000000e+00 0.0000000000000000e+00
5.4175440916716084e+00 0.0000000000000000e+00 0.0000000000000000e+00
5.4175345737259466e+00 0.0000000000000000e+00 0.0000000000000000e+00
5.4175294685926438e+00 0.0000000000000000e+00 0.0000000000000000e+00
5.4175287737695532e+00 0.0000000000000000e+00 0.0000000000000000e+00
5.4175324867035330e+00 0.0000000000000000e+00 0.0000000000000000e+00
5.4175406052913777e+00 0.0000000000000000e+00 0.0000000000000000e+00
5.4175531274180795e+00 0.0000000000000000e+00 0.0000000000000000e+00
5.4175700509470008e+00 0.0000000000000000e+00 0.0000000000000000e+00
5.4175913737365065e+00 0.0000000000000000e+00 0.0000000000000000e+00
5.4176170934552390e+00 0.0000000000000000e+00 0.0000000000000000e+00
5.4176472079021147e+00 0.0000000000000000e+00 0.0000000000000000e+00
5.4176817147607679e+00 0.0000000000000000e+00 0.0000000000000000e+00
5.4177206114775203e+00 0.0000000000000000e+00 0.0000000000000000e+00
5.4177638956193306e+00 0.0000000000000000e+00 0.0000000000000000e+00
5.4178115646581144e+00 0.0000000000000000e+00 0.0000000000000000e+00
5.4178636161215872e+00 0.0000000000000000e+00 0.0000000000000000e+00
5.4179200475103491e+00 0.0000000000000000e+00 0.0000000000000000e+00
5.4179808559986400e+00 0.0000000000000000e+00 0.0000000000000000e+00
5.4180460393831016e+00 0.0000000000000000e+00 0.0000000000000000e+00
5.4181155947581203e+00 0.0000000000000000e+00 0.0000000000000000e+00
5.4181895199001300e+00 0.0000000000000000e+00 0.0000000000000000e+00
5.4182678112549514e+00 0.0000000000000000e+00 0.0000000000000000e+00
5.4183504659340018e+00 0.0000000000000000e+00 0.0000000000000000e+00
5.4184374822388746e+00 0.0000000000000000e+00 0.0000000000000000e+00
5.4185288571454890e+00 0.0000000000000000e+00 0.0000000000000000e+00
5.4186245877652706e+00 0.0000000000000000e+00 0.0000000000000000e+00
5.4187246709266406e+00 0.0000000000000000e+00 0.0000000000000000e+00
5.4188291050166697e+00 0.0000000000000000e+00 0.0000000000000000e+00
5.4189378857913155e+00 0.0000000000000000e+00 0.0000000000000000e+00
5.4190510116236421e+00 0.0000000000000000e+00 0.0000000000000000e+00
5.4191684807648688e+00 0.0000000000000000e+00 0.0000000000000000e+00
5.4192902883226672e+00 0.0000000000000000e+00 0.0000000000000000e+00
5.4194164312762796e+00 0.0000000000000000e+00 0.0000000000000000e+00
5.4195469049170919e+00 0.0000000000000000e+00 0.0000000000000000e+00
5.4196817106532889e+00 0.0000000000000000e+00 0.0000000000000000e+00
5.4198208394242675e+00 0.0000000000000000e+00 0.0000000000000000e+00
5.4199643035537273e+00 0.0000000000000000e+00 0.0000000000000000e+00
5.4201120601396120e+00 0.0000000000000000e+00 0.0000000000000000e+00
5.4202641973414893e+00 0.0000000000000000e+00 0.0000000000000000e+00
5.4204204954630013e+00 0.0000000000000000e+00 0.0000000000000000e+00
5.4205814613142476e+00 0.0000000000000000e+00 0.0000000000000000e+00
5.4207459022843612e+00 0.0000000000000000e+00 0.0000000000000000e+00
5.4209165483946515e+00 0.0000000000000000e+00 0.0000000000000000e+00
5.4210871945049410e+00 0.0000000000000000e+00 0.0000000000000000e+00


SCALARS pressure float
LOOKUP_TABLE default
3.6318455872494930e+01
3.5981242235540684e+01
3.5644028598586431e+01
3.5306525439086677e+01
3.4968568328189853e+01
3.4630036596045386e+01
3.4290863187415724e+01
3.3951018490288021e+01
3.3610446987760838e+01
3.3269136523354518e+01
3.2927116839520828e+01
3.2584392687413938e+01
3.2240966295950884e+01
3.1896845004028972e+01
3.1552022308876651e+01
3.1206490755277887e+01
3.0860249001407471e+01
3.0513302495633820e+01
3.0165670641847953e+01
2.9817375651449222e+01
2.9468429377631640e+01
2.9118828788771797e+01
2.8768564118352774e+01
2.8417622845449550e+01
2.8066002909224551e+01
2.7713766866448406e+01
2.7360934238713053e+01
2.7007469465655614e+01
2.6653381264750074e+01
2.6298678120970639e+01
2.5943370633379811e+01
2.5587468317099862e+01
2.5230976715606630e+01
2.4873901389406573e+01
2.4516247346806875e+01
2.4158021588852630e+01
2.3799232242476169e+01
2.3439886809610027e+01
2.3079992772254375e+01
2.2719556905023754e+01
2.2358587528019690e+01
2.1997092021138464e+01
2.1635076011679974e+01
2.1272545796394962e+01
2.0909508091930817e+01
2.0545969855867980e+01
2.0181938189005447e+01
1.9817420289933022e+01
1.9452423430154287e+01
1.9086954917951889e+01
1.8721022092119885e+01
1.8354632324765738e+01
1.7987793006430916e+01
1.7620511553417050e+01
1.7252795407730741e+01
1.6884652026124360e+01
1.6516088879085945e+01
1.6147113460048235e+01
1.5777733282896127e+01
1.5407955875288140e+01
1.5037788783404324e+01
1.4667239572733331e+01
1.4296315826175038e+01
1.3925025141172702e+01
1.3553375130687581e+01
1.3181373423256611e+01
1.2809027662777428e+01
1.2436345508923880e+01
1.2063334635700754e+01
1.1690002731916477e+01
1.1316357501522031e+01
1.0942406661893848e+01
1.0568157944158910e+01
1.0193619092269223e+01
9.8187978630180304e+00
9.4437020269859140e+00
9.0683393644318642e+00
8.6927176700149129e+00
8.3168447472870373e+00
7.9407284163409955e+00
7.5643765060764583e+00
7.1877968504695495e+00
6.8109972978534348e+00
6.4339857068406037e+00
6.0567699469385836e+00
5.6793578904580180e+00
5.3017574281439313e+00
4.9239764494967249e+00
4.5460228516545502e+00
4.1679045527887730e+00
3.7896294738459337e+00
3.4112055483248289e+00
3.0326406925153289e+00
2.6539428648903081e+00
2.2751199581869312e+00
1.8961800617147329e+00
1.5171308277762920e+00
1.1379809358977515e+00
7.5873669989221026e-01
3.7940986055015191e-01
0.0000000000000000e+00


SCALARS diameter float
LOOKUP_TABLE default
1.0032830595085362e+00
1.0032458253423180e+00
1.0032126185681722e+00
1.0031833758229718e+00
1.0031555670767729e+00
1.0031275425912098e+00
1.0031005499796848e+00
1.0030718860105223e+00
1.0030401159508655e+00
1.0030099321475821e+00
1.0029800139004581e+00
1.0029498883793619e+00
1.0029197258582048e+00
1.0028892426882265e+00
1.0028575963555568e+00
1.0028253365812085e+00
1.0027922054572076e+00
1.0027595589646079e+00
1.0027280087592740e+00
1.0026977058153916e+00
1.0026675070464606e+00
1.0026366344883428e+00
1.0026040643298477e+00
1.0025696751985953e+00
1.0025362979377281e+00
1.0025071343889136e+00
1.0024750473127506e+00
1.0024427463290810e+00
1.0024104047973206e+00
1.0023780446913366e+00
1.0023459878068626e+00
1.0023138611352624e+00
1.0022816976000584e+00
1.0022493301333777e+00
1.0022167959165673e+00
1.0021842179189595e+00
1.0021515928919142e+00
1.0021189196534890e+00
1.0020861983181895e+00
1.0020534408419428e+00
1.0020208091654537e+00
1.0019881270641851e+00
1.0019553944962365e+00
1.0019226138351340e+00
1.0018897861064608e+00
1.0018569118812144e+00
1.0018239917579776e+00
1.0017910272872215e+00
1.0017580193559996e+00
1.0017249680207245e+00
1.0016918746003391e+00
1.0016587395805301e+00
1.0016255636174691e+00
1.0015923480736053e+00
1.0015590935844818e+00
1.0015258005384642e+00
1.0014924695982574e+00
1.0014591019797257e+00
1.0014256981205956e+00
1.0013922587394455e+00
1.0013587847203227e+00
1.0013252769439260e+00
1.0012917361202451e+00
1.0012581628840271e+00
1.0012245580339560e+00
1.0011909222173587e+00
1.0011572562575477e+00
1.0011235608420626e+00
1.0010898367192904e+00
1.0010560846647270e+00
1.0010223054796574e+00
1.0009884998468792e+00
1.0009546686001896e+00
1.0009208123772031e+00
1.0008869320795932e+00
1.0008530283454622e+00
1.0008191018810257e+00
1.0007851535742376e+00
1.0007511839709538e+00
1.0007171944975304e+00
1.0006831849361351e+00
1.0006491565612701e+00
1.0006151098877230e+00
1.0005810459879942e+00
1.0005469651710124e+00
1.0005128682529361e+00
1.0004787564795210e+00
1.0004446291544127e+00
1.0004104885699485e+00
1.0003763348863057e+00
1.0003421694903400e+00
1.0003079922116587e+00
1.0002738037899921e+00
1.0002396051311391e+00
1.0002053973992242e+00
1.0001711814891692e+00
1.0001369577393058e+00
1.0001027269881564e+00
1.0000684902530876e+00
1.0000342489254135e+00
1.0000000018994692e+00


SCALARS iters float
LOOKUP_TABLE default
3.0000000000000000e+00
3.0000000000000000e+00
3.0000000000000000e+00
3.0000000000000000e+00
3.0000000000000000e+00
3.0000000000000000e+00
3.0000000000000000e+00
3.0000000000000000e+00
3.0000000000000000e+00
3.0000000000000000e+00
3.0000000000000000e+00
3.0000000000000000e+00
3.0000000000000000e+00
3.0000000000000000e+00
3.0000000000000000e+00
3.0000000000000000e+00
3.0000000000000000e+00
3.0000000000000000e+00
3.0000000000000000e+00
3.0000000000000000e+00
3.0000000000000000e+00
3.0000000000000000e+00
3.0000000000000000e+00
3.0000000000000000e+00
3.0000000000000000e+00
3.0000000000000000e+00
3.0000000000000000e+00
3.0000000000000000e+00
3.0000000000000000e+00
3.0000000000000000e+00
3.0000000000000000e+00
3.0000000000000000e+00
3.0000000000000000e+00
3.0000000000000000e+00
3.0000000000000000e+00
3.0000000000000000e+00
3.0000000000000000e+00
3.0000000000000000e+00
3.0000000000000000e+00
3.0000000000000000e+00
3.0000000000000000e+00
3.0000000000000000e+00
3.0000000000000000e+00
3.0000000000000000e+00
3.0000000000000000e+00
3.0000000000000000e+00
3.0000000000000000e+00
3.0000000000000000e+00
3.0000000000000000e+00
3.0000000000000000e+00
3.0000000000000000e+00
3.0000000000000000e+00
3.0000000000000000e+00
3.0000000000000000e+00
3.0000000000000000e+00
3.0000000000000000e+00
3.0000000000000000e+00
3.0000000000000000e+00
3.0000000000000000e+00
3.0000000000000000e+00
3.0000000000000000e+00
3.0000000000000000e+00
3.0000000000000000e+00
3.0000000000000000e+00
3.0000000000000000e+00
3.0000000000000000e+00
3.0000000000000000e+00
3.0000000000000000e+00
3.0000000000000000e+00
3.0000000000000000e+00
3.0000000000000000e+00
3.0000000000000000e+00
3.0000000000000000e+00
3.0000000000000000e+00
3.0000000000000000e+00
3.0000000000000000e+00
3.0000000000000000e+00
3.0000000000000000e+00
3.0000000000000000e+00
3.0000000000000000e+00
3.0000000000000000e+00
3.0000000000000000e+00
3.0000000000000000e+00
3.0000000000000000e+00
3.0000000000000000e+00
3.0000000000000000e+00
3.0000000000000000e+00
3.0000000000000000e+00
3.0000000000000000e+00
3.0000000000000000e+00
3.0000000000000000e+00
3.0000000000000000e+00
3.0000000000000000e+00
3.0000000000000000e+00
3.0000000000000000e+00
3.0000000000000000e+00
3.0000000000000000e+00
3.0000000000000000e+00
3.0000000000000000e+00
3.0000000000000000e+00
3.0000000000000000e+00


