# vtk DataFile Version 2.0

ASCII

DATASET UNSTRUCTURED_GRID

POINTS 101 float

0.0000000000000000e+00 0.0000000000000000e+00 0.0000000000000000e+00
1.0000000000000001e-01 0.0000000000000000e+00 0.0000000000000000e+00
2.0000000000000001e-01 0.0000000000000000e+00 0.0000000000000000e+00
3.0000000000000004e-01 0.0000000000000000e+00 0.0000000000000000e+00
4.0000000000000002e-01 0.0000000000000000e+00 0.0000000000000000e+00
5.0000000000000000e-01 0.0000000000000000e+00 0.0000000000000000e+00
6.0000000000000009e-01 0.0000000000000000e+00 0.0000000000000000e+00
7.0000000000000007e-01 0.0000000000000000e+00 0.0000000000000000e+00
8.0000000000000004e-01 0.0000000000000000e+00 0.0000000000000000e+00
9.0000000000000002e-01 0.0000000000000000e+00 0.0000000000000000e+00
1.0000000000000000e+00 0.0000000000000000e+00 0.0000000000000000e+00
1.1000000000000001e+00 0.0000000000000000e+00 0.0000000000000000e+00
1.2000000000000002e+00 0.0000000000000000e+00 0.0000000000000000e+00
1.3000000000000000e+00 0.0000000000000000e+00 0.0000000000000000e+00
1.4000000000000001e+00 0.0000000000000000e+00 0.0000000000000000e+00
1.5000000000000000e+00 0.0000000000000000e+00 0.0000000000000000e+00
1.6000000000000001e+00 0.0000000000000000e+00 0.0000000000000000e+00
1.7000000000000002e+00 0.0000000000000000e+00 0.0000000000000000e+00
1.8000000000000000e+00 0.0000000000000000e+00 0.0000000000000000e+00
1.9000000000000001e+00 0.0000000000000000e+00 0.0000000000000000e+00
2.0000000000000000e+00 0.0000000000000000e+00 0.0000000000000000e+00
2.1000000000000001e+00 0.0000000000000000e+00 0.0000000000000000e+00
2.2000000000000002e+00 0.0000000000000000e+00 0.0000000000000000e+00
2.3000000000000003e+00 0.0000000000000000e+00 0.0000000000000000e+00
2.4000000000000004e+00 0.0000000000000000e+00 0.0000000000000000e+00
2.5000000000000000e+00 0.0000000000000000e+00 0.0000000000000000e+00
2.6000000000000001e+00 0.0000000000000000e+00 0.0000000000000000e+00
2.7000000000000002e+00 0.0000000000000000e+00 0.0000000000000000e+00
2.8000000000000003e+00 0.0000000000000000e+00 0.0000000000000000e+00
2.9000000000000004e+00 0.0000000000000000e+00 0.0000000000000000e+00
3.0000000000000000e+00 0.0000000000000000e+00 0.0000000000000000e+00
3.1000000000000001e+00 0.0000000000000000e+00 0.0000000000000000e+00
3.2000000000000002e+00 0.0000000000000000e+00 0.0000000000000000e+00
3.3000000000000003e+00 0.0000000000000000e+00 0.0000000000000000e+00
3.4000000000000004e+00 0.0000000000000000e+00 0.0000000000000000e+00
3.5000000000000000e+00 0.0000000000000000e+00 0.0000000000000000e+00
3.6000000000000001e+00 0.0000000000000000e+00 0.0000000000000000e+00
3.7000000000000002e+00 0.0000000000000000e+00 0.0000000000000000e+00
3.8000000000000003e+00 0.0000000000000000e+00 0.0000000000000000e+00
3.9000000000000004e+00 0.0000000000000000e+00 0.0000000000000000e+00
4.0000000000000000e+00 0.0000000000000000e+00 0.0000000000000000e+00
4.1000000000000005e+00 0.0000000000000000e+00 0.0000000000000000e+00
4.2000000000000002e+00 0.0000000000000000e+00 0.0000000000000000e+00
4.2999999999999998e+00 0.0000000000000000e+00 0.0000000000000000e+00
4.4000000000000004e+00 0.0000000000000000e+00 0.0000000000000000e+00
4.5000000000000000e+00 0.0000000000000000e+00 0.0000000000000000e+00
4.6000000000000005e+00 0.0000000000000000e+00 0.0000000000000000e+00
4.7000000000000002e+00 0.0000000000000000e+00 0.0000000000000000e+00
4.8000000000000007e+00 0.0000000000000000e+00 0.0000000000000000e+00
4.9000000000000004e+00 0.0000000000000000e+00 0.0000000000000000e+00
5.0000000000000000e+00 0.0000000000000000e+00 0.0000000000000000e+00
5.1000000000000005e+00 0.0000000000000000e+00 0.0000000000000000e+00
5.2000000000000002e+00 0.0000000000000000e+00 0.0000000000000000e+00
5.3000000000000007e+00 0.0000000000000000e+00 0.0000000000000000e+00
5.4000000000000004e+00 0.0000000000000000e+00 0.0000000000000000e+00
5.5000000000000000e+00 0.0000000000000000e+00 0.0000000000000000e+00
5.6000000000000005e+00 0.0000000000000000e+00 0.0000000000000000e+00
5.7000000000000002e+00 0.0000000000000000e+00 0.0000000000000000e+00
5.8000000000000007e+00 0.0000000000000000e+00 0.0000000000000000e+00
5.9000000000000004e+00 0.0000000000000000e+00 0.0000000000000000e+00
6.0000000000000000e+00 0.0000000000000000e+00 0.0000000000000000e+00
6.1000000000000005e+00 0.0000000000000000e+00 0.0000000000000000e+00
6.2000000000000002e+00 0.0000000000000000e+00 0.0000000000000000e+00
6.3000000000000007e+00 0.0000000000000000e+00 0.0000000000000000e+00
6.4000000000000004e+00 0.0000000000000000e+00 0.0000000000000000e+00
6.5000000000000000e+00 0.0000000000000000e+00 0.0000000000000000e+00
6.6000000000000005e+00 0.0000000000000000e+00 0.0000000000000000e+00
6.7000000000000002e+00 0.0000000000000000e+00 0.0000000000000000e+00
6.8000000000000007e+00 0.0000000000000000e+00 0.0000000000000000e+00
6.9000000000000004e+00 0.0000000000000000e+00 0.0000000000000000e+00
7.0000000000000000e+00 0.0000000000000000e+00 0.0000000000000000e+00
7.1000000000000005e+00 0.0000000000000000e+00 0.0000000000000000e+00
7.2000000000000002e+00 0.0000000000000000e+00 0.0000000000000000e+00
7.3000000000000007e+00 0.0000000000000000e+00 0.0000000000000000e+00
7.4000000000000004e+00 0.0000000000000000e+00 0.0000000000000000e+00
7.5000000000000000e+00 0.0000000000000000e+00 0.0000000000000000e+00
7.6000000000000005e+00 0.0000000000000000e+00 0.0000000000000000e+00
7.7000000000000002e+00 0.0000000000000000e+00 0.0000000000000000e+00
7.8000000000000007e+00 0.0000000000000000e+00 0.0000000000000000e+00
7.9000000000000004e+00 0.0000000000000000e+00 0.0000000000000000e+00
8.0000000000000000e+00 0.0000000000000000e+00 0.0000000000000000e+00
8.0999999999999996e+00 0.0000000000000000e+00 0.0000000000000000e+00
8.2000000000000011e+00 0.0000000000000000e+00 0.0000000000000000e+00
8.3000000000000007e+00 0.0000000000000000e+00 0.0000000000000000e+00
8.4000000000000004e+00 0.0000000000000000e+00 0.0000000000000000e+00
8.5000000000000000e+00 0.0000000000000000e+00 0.0000000000000000e+00
8.5999999999999996e+00 0.0000000000000000e+00 0.0000000000000000e+00
8.7000000000000011e+00 0.0000000000000000e+00 0.0000000000000000e+00
8.8000000000000007e+00 0.0000000000000000e+00 0.0000000000000000e+00
8.9000000000000004e+00 0.0000000000000000e+00 0.0000000000000000e+00
9.0000000000000000e+00 0.0000000000000000e+00 0.0000000000000000e+00
9.0999999999999996e+00 0.0000000000000000e+00 0.0000000000000000e+00
9.2000000000000011e+00 0.0000000000000000e+00 0.0000000000000000e+00
9.3000000000000007e+00 0.0000000000000000e+00 0.0000000000000000e+00
9.4000000000000004e+00 0.0000000000000000e+00 0.0000000000000000e+00
9.5000000000000000e+00 0.0000000000000000e+00 0.0000000000000000e+00
9.6000000000000014e+00 0.0000000000000000e+00 0.0000000000000000e+00
9.7000000000000011e+00 0.0000000000000000e+00 0.0000000000000000e+00
9.8000000000000007e+00 0.0000000000000000e+00 0.0000000000000000e+00
9.9000000000000004e+00 0.0000000000000000e+00 0.0000000000000000e+00
1.0000000000000000e+01 0.0000000000000000e+00 0.0000000000000000e+00

POINT_DATA 101

VECTORS velocity float
4.6259696851135015e+00 0.0000000000000000e+00 0.0000000000000000e+00
4.6253632598257068e+00 0.0000000000000000e+00 0.0000000000000000e+00
4.6248017883989601e+00 0.0000000000000000e+00 0.0000000000000000e+00
4.6242693947278868e+00 0.0000000000000000e+00 0.0000000000000000e+00
4.6237554165539105e+00 0.0000000000000000e+00 0.0000000000000000e+00
4.6232547553059549e+00 0.0000000000000000e+00 0.0000000000000000e+00
4.6227670797943174e+00 0.0000000000000000e+00 0.0000000000000000e+00
4.6222929006840872e+00 0.0000000000000000e+00 0.0000000000000000e+00
4.6218262913871992e+00 0.0000000000000000e+00 0.0000000000000000e+00
4.6213591339346882e+00 0.0000000000000000e+00 0.0000000000000000e+00
4.6208929582864133e+00 0.0000000000000000e+00 0.0000000000000000e+00
4.6204300070771245e+00 0.0000000000000000e+00 0.0000000000000000e+00
4.6199697019387571e+00 0.0000000000000000e+00 0.0000000000000000e+00
4.6195135665433824e+00 0.0000000000000000e+00 0.0000000000000000e+00
4.6190643712299879e+00 0.0000000000000000e+00 0.0000000000000000e+00
4.6186205871418764e+00 0.0000000000000000e+00 0.0000000000000000e+00
4.6181838662885415e+00 0.0000000000000000e+00 0.0000000000000000e+00
4.6177559084357078e+00 0.0000000000000000e+00 0.0000000000000000e+00
4.6173311111930113e+00 0.0000000000000000e+00 0.0000000000000000e+00
4.6169063462325166e+00 0.0000000000000000e+00 0.0000000000000000e+00
4.6164830254684448e+00 0.0000000000000000e+00 0.0000000000000000e+00
4.6160625231298553e+00 0.0000000000000000e+00 0.0000000000000000e+00
4.6156451955581392e+00 0.0000000000000000e+00 0.0000000000000000e+00
4.6152330675010216e+00 0.0000000000000000e+00 0.0000000000000000e+00
4.6148273985610775e+00 0.0000000000000000e+00 0.0000000000000000e+00
4.6144271963405705e+00 0.0000000000000000e+00 0.0000000000000000e+00
4.6140298680696539e+00 0.0000000000000000e+00 0.0000000000000000e+00
4.6136360835252725e+00 0.0000000000000000e+00 0.0000000000000000e+00
4.6132459950261131e+00 0.0000000000000000e+00 0.0000000000000000e+00
4.6128588779070707e+00 0.0000000000000000e+00 0.0000000000000000e+00
4.6124740610042876e+00 0.0000000000000000e+00 0.0000000000000000e+00
4.6120919283534381e+00 0.0000000000000000e+00 0.0000000000000000e+00
4.6117128240667364e+00 0.0000000000000000e+00 0.0000000000000000e+00
4.6113378931497833e+00 0.0000000000000000e+00 0.0000000000000000e+00
4.6109671492168598e+00 0.0000000000000000e+00 0.0000000000000000e+00
4.6106002527698431e+00 0.0000000000000000e+00 0.0000000000000000e+00
4.6102371092499537e+00 0.0000000000000000e+00 0.0000000000000000e+00
4.6098776256965870e+00 0.0000000000000000e+00 0.0000000000000000e+00
4.6095218627521293e+00 0.0000000000000000e+00 0.0000000000000000e+00
4.6091695260573173e+00 0.0000000000000000e+00 0.0000000000000000e+00
4.6088204268245869e+00 0.0000000000000000e+00 0.0000000000000000e+00
4.6084748169892027e+00 0.0000000000000000e+00 0.0000000000000000e+00
4.6081327713042795e+00 0.0000000000000000e+00 0.0000000000000000e+00
4.6077943244602704e+00 0.0000000000000000e+00 0.0000000000000000e+00
4.6074594902117383e+00 0.0000000000000000e+00 0.0000000000000000e+00
4.6071282749516449e+00 0.0000000000000000e+00 0.0000000000000000e+00
4.6068006781794502e+00 0.0000000000000000e+00 0.0000000000000000e+00
4.6064766923519693e+00 0.0000000000000000e+00 0.0000000000000000e+00
4.6061563098493803e+00 0.0000000000000000e+00 0.0000000000000000e+00
4.6058395235063658e+00 0.0000000000000000e+00 0.0000000000000000e+00
4.6055263265091835e+00 0.0000000000000000e+00 0.0000000000000000e+00
4.6052167108991160e+00 0.0000000000000000e+00 0.0000000000000000e+00
4.6049106695093851e+00 0.0000000000000000e+00 0.0000000000000000e+00
4.6046081947889670e+00 0.0000000000000000e+00 0.0000000000000000e+00
4.6043092791546574e+00 0.0000000000000000e+00 0.0000000000000000e+00
4.6040139151541366e+00 0.0000000000000000e+00 0.0000000000000000e+00
4.6037220946189761e+00 0.0000000000000000e+00 0.0000000000000000e+00
4.6034338110745638e+00 0.0000000000000000e+00 0.0000000000000000e+00
4.6031490581214811e+00 0.0000000000000000e+00 0.0000000000000000e+00
4.6028678291457092e+00 0.0000000000000000e+00 0.0000000000000000e+00
4.6025901175799220e+00 0.0000000000000000e+00 0.0000000000000000e+00
4.6023159159896041e+00 0.0000000000000000e+00 0.0000000000000000e+00
4.6020452171725301e+00 0.0000000000000000e+00 0.0000000000000000e+00
4.6017780149618464e+00 0.0000000000000000e+00 0.0000000000000000e+00
4.6015143032555352e+00 0.0000000000000000e+00 0.0000000000000000e+00
4.6012540760275407e+00 0.0000000000000000e+00 0.0000000000000000e+00
4.6009973272367617e+00 0.0000000000000000e+00 0.0000000000000000e+00
4.6007440512154449e+00 0.0000000000000000e+00 0.0000000000000000e+00
4.6004942423957704e+00 0.0000000000000000e+00 0.0000000000000000e+00
4.6002478951477066e+00 0.0000000000000000e+00 0.0000000000000000e+00
4.6000050038008444e+00 0.0000000000000000e+00 0.0000000000000000e+00
4.5997655625126015e+00 0.0000000000000000e+00 0.0000000000000000e+00
4.5995295653818271e+00 0.0000000000000000e+00 0.0000000000000000e+00
4.5992970073558430e+00 0.0000000000000000e+00 0.0000000000000000e+00
4.5990678832304370e+00 0.0000000000000000e+00 0.0000000000000000e+00
4.5988421882497370e+00 0.0000000000000000e+00 0.0000000000000000e+00
4.5986199185042604e+00 0.0000000000000000e+00 0.0000000000000000e+00
4.5984010687790642e+00 0.0000000000000000e+00 0.0000000000000000e+00
4.5981856346148717e+00 0.0000000000000000e+00 0.0000000000000000e+00
4.5979736104728453e+00 0.0000000000000000e+00 0.0000000000000000e+00
4.5977649917814984e+00 0.0000000000000000e+00 0.0000000000000000e+00
4.5975597745605823e+00 0.0000000000000000e+00 0.0000000000000000e+00
4.5973579544202288e+00 0.0000000000000000e+00 0.0000000000000000e+00
4.5971595295541032e+00 0.0000000000000000e+00 0.0000000000000000e+00
4.5969644947243147e+00 0.0000000000000000e+00 0.0000000000000000e+00
4.5967728432572574e+00 0.0000000000000000e+00 0.0000000000000000e+00
4.5965845728736019e+00 0.0000000000000000e+00 0.0000000000000000e+00
4.5963996815763020e+00 0.0000000000000000e+00 0.0000000000000000e+00
4.5962181631713195e+00 0.0000000000000000e+00 0.0000000000000000e+00
4.5960400174523981e+00 0.0000000000000000e+00 0.0000000000000000e+00
4.5958652416613113e+00 0.0000000000000000e+00 0.0000000000000000e+00
4.5956938304438575e+00 0.0000000000000000e+00 0.0000000000000000e+00
4.5955257786687609e+00 0.0000000000000000e+00 0.0000000000000000e+00
4.5953610902671054e+00 0.0000000000000000e+00 0.0000000000000000e+00
4.5951997508439888e+00 0.0000000000000000e+00 0.0000000000000000e+00
4.5950417851032750e+00 0.0000000000000000e+00 0.0000000000000000e+00
4.5948871134078058e+00 0.0000000000000000e+00 0.0000000000000000e+00
4.5947359492879434e+00 0.0000000000000000e+00 0.0000000000000000e+00
4.5945876933529828e+00 0.0000000000000000e+00 0.0000000000000000e+00
4.5944439845285530e+00 0.0000000000000000e+00 0.0000000000000000e+00
4.5943002757041240e+00 0.0000000000000000e+00 0.0000000000000000e+00


SCALARS pressure float
LOOKUP_TABLE default
-3.1920241568157547e+01
-3.1611331836608578e+01
-3.1302422105059609e+01
-3.0993350989817397e+01
-3.0684047467879481e+01
-3.0374467619981083e+01
-3.0064591730728658e+01
-2.9754421657600631e+01
-2.9443964306429358e+01
-2.9133201857420730e+01
-2.8822102607483785e+01
-2.8510671638337744e+01
-2.8198922388405421e+01
-2.7886857546851331e+01
-2.7574486070891023e+01
-2.7261823735786866e+01
-2.6948869004736039e+01
-2.6635631159519559e+01
-2.6322123992709880e+01
-2.6008331318755921e+01
-2.5694241187721612e+01
-2.5379860184171683e+01
-2.5065196130109687e+01
-2.4750252754138959e+01
-2.4435041401368181e+01
-2.4119577592365719e+01
-2.3803866098292005e+01
-2.3487898255365245e+01
-2.3171678172335792e+01
-2.2855210183807134e+01
-2.2538495051236449e+01
-2.2221532984828471e+01
-2.1904328482777760e+01
-2.1586886749221573e+01
-2.1269217267589447e+01
-2.0951325587486231e+01
-2.0633215010159379e+01
-2.0314889393420675e+01
-1.9996352638214095e+01
-1.9677609196701976e+01
-1.9358662275686743e+01
-1.9039515128915031e+01
-1.8720172725816330e+01
-1.8400639517274289e+01
-1.8080919700648415e+01
-1.7761017341597942e+01
-1.7440936453038709e+01
-1.7120681010175950e+01
-1.6800254949332572e+01
-1.6479662197629040e+01
-1.6158906680841916e+01
-1.5837992325327011e+01
-1.5516923051594464e+01
-1.5195702781177472e+01
-1.4874335432652481e+01
-1.4552824922575747e+01
-1.4231175166058559e+01
-1.3909390073886041e+01
-1.3587473562340273e+01
-1.3265429547209015e+01
-1.2943261941969073e+01
-1.2620974658685830e+01
-1.2298571604026106e+01
-1.1976056683068041e+01
-1.1653433803836606e+01
-1.1330706873870721e+01
-1.1007879799714052e+01
-1.0684956486475009e+01
-1.0361940839389444e+01
-1.0038836762907062e+01
-9.7156481598919200e+00
-9.3923789314918213e+00
-9.0690329764436388e+00
-8.7456141912248775e+00
-8.4221264740743020e+00
-8.0985737213933859e+00
-7.7749598300650566e+00
-7.4512886994473204e+00
-7.1275642228626808e+00
-6.8037902942986159e+00
-6.4799708005594967e+00
-6.1561096309476202e+00
-5.8322106765488231e+00
-5.5082778256717084e+00
-5.1843149745785597e+00
-4.8603260059904470e+00
-4.5363147943092557e+00
-4.2122852310887229e+00
-3.8882412085326963e+00
-3.5641865966878030e+00
-3.2401252876272300e+00
-2.9160611663359011e+00
-2.5919981066804563e+00
-2.2679399766513106e+00
-1.9438906833697391e+00
-1.6198540532083601e+00
-1.2958340865430824e+00
-9.7183430696108386e-01
-6.4785956847466819e-01
-3.2391104514819802e-01
0.0000000000000000e+00


SCALARS diameter float
LOOKUP_TABLE default
9.9712646438796382e-01
9.9715744686817054e-01
9.9718715070232289e-01
9.9721541215009923e-01
9.9724268257268434e-01
9.9726995550718800e-01
9.9729587318405755e-01
9.9732059321672784e-01
9.9734468934987885e-01
9.9737211176725049e-01
9.9740080699648581e-01
9.9742954860094657e-01
9.9745864308710386e-01
9.9748812195569192e-01
9.9751638091882544e-01
9.9754442563811119e-01
9.9757220251935308e-01
9.9759819765803437e-01
9.9762499464983889e-01
9.9765372546415199e-01
9.9768299483317813e-01
9.9771236423712217e-01
9.9774154024216521e-01
9.9777027154395470e-01
9.9779768131195068e-01
9.9782511095399296e-01
9.9785356016670190e-01
9.9788196417924291e-01
9.9791038592936254e-01
9.9793886996622061e-01
9.9796787830916922e-01
9.9799689301537275e-01
9.9802600832591337e-01
9.9805471583661232e-01
9.9808321181093962e-01
9.9811172400588677e-01
9.9814025295704623e-01
9.9816879955050963e-01
9.9819736272984183e-01
9.9822595545393988e-01
9.9825474246676238e-01
9.9828353897891120e-01
9.9831234838868677e-01
9.9834117121770161e-01
9.9837000760424688e-01
9.9839885671942252e-01
9.9842771738788449e-01
9.9845659140682019e-01
9.9848547841260449e-01
9.9851437824321831e-01
9.9854329004949394e-01
9.9857221405643493e-01
9.9860114990304272e-01
9.9863009731508412e-01
9.9865905629465157e-01
9.9868802648631272e-01
9.9871700807039498e-01
9.9874600060286589e-01
9.9877500360999705e-01
9.9880401692858289e-01
9.9883304029638720e-01
9.9886207372447389e-01
9.9889111733927638e-01
9.9892017058753557e-01
9.9894923327661034e-01
9.9897830511462227e-01
9.9900738596928262e-01
9.9903647554627062e-01
9.9906557358836812e-01
9.9909467989894185e-01
9.9912379434529330e-01
9.9915291681386098e-01
9.9918204728433901e-01
9.9921118545113985e-01
9.9924033096233822e-01
9.9926948375723701e-01
9.9929864307847549e-01
9.9932780908762442e-01
9.9935698153243768e-01
9.9938616045680140e-01
9.9941534567108126e-01
9.9944453665197575e-01
9.9947373347990431e-01
9.9950293523564115e-01
9.9953214170912830e-01
9.9956135413178038e-01
9.9959057190108846e-01
9.9961979351327035e-01
9.9964902074333206e-01
9.9967825133269239e-01
9.9970748520918273e-01
9.9973672280774140e-01
9.9976596539027740e-01
9.9979521018903328e-01
9.9982445808872267e-01
9.9985370936498330e-01
9.9988296307107338e-01
9.9991221920172957e-01
9.9994147752173745e-01
9.9997073924702629e-01
1.0000000066147463e+00


SCALARS iters float
LOOKUP_TABLE default
5.0000000000000000e+00
5.0000000000000000e+00
5.0000000000000000e+00
5.0000000000000000e+00
5.0000000000000000e+00
5.0000000000000000e+00
5.0000000000000000e+00
5.0000000000000000e+00
5.0000000000000000e+00
5.0000000000000000e+00
5.0000000000000000e+00
5.0000000000000000e+00
5.0000000000000000e+00
5.0000000000000000e+00
5.0000000000000000e+00
5.0000000000000000e+00
5.0000000000000000e+00
5.0000000000000000e+00
5.0000000000000000e+00
5.0000000000000000e+00
5.0000000000000000e+00
5.0000000000000000e+00
5.0000000000000000e+00
5.0000000000000000e+00
5.0000000000000000e+00
5.0000000000000000e+00
5.0000000000000000e+00
5.0000000000000000e+00
5.0000000000000000e+00
5.0000000000000000e+00
5.0000000000000000e+00
5.0000000000000000e+00
5.0000000000000000e+00
5.0000000000000000e+00
5.0000000000000000e+00
5.0000000000000000e+00
5.0000000000000000e+00
5.0000000000000000e+00
5.0000000000000000e+00
5.0000000000000000e+00
5.0000000000000000e+00
5.0000000000000000e+00
5.0000000000000000e+00
5.0000000000000000e+00
5.0000000000000000e+00
5.0000000000000000e+00
5.0000000000000000e+00
5.0000000000000000e+00
5.0000000000000000e+00
5.0000000000000000e+00
5.0000000000000000e+00
5.0000000000000000e+00
5.0000000000000000e+00
5.0000000000000000e+00
5.0000000000000000e+00
5.0000000000000000e+00
5.0000000000000000e+00
5.0000000000000000e+00
5.0000000000000000e+00
5.0000000000000000e+00
5.0000000000000000e+00
5.0000000000000000e+00
5.0000000000000000e+00
5.0000000000000000e+00
5.0000000000000000e+00
5.0000000000000000e+00
5.0000000000000000e+00
5.0000000000000000e+00
5.0000000000000000e+00
5.0000000000000000e+00
5.0000000000000000e+00
5.0000000000000000e+00
5.0000000000000000e+00
5.0000000000000000e+00
5.0000000000000000e+00
5.0000000000000000e+00
5.0000000000000000e+00
5.0000000000000000e+00
5.0000000000000000e+00
5.0000000000000000e+00
5.0000000000000000e+00
5.0000000000000000e+00
5.0000000000000000e+00
5.0000000000000000e+00
5.0000000000000000e+00
5.0000000000000000e+00
5.0000000000000000e+00
5.0000000000000000e+00
5.0000000000000000e+00
5.0000000000000000e+00
5.0000000000000000e+00
5.0000000000000000e+00
5.0000000000000000e+00
5.0000000000000000e+00
5.0000000000000000e+00
5.0000000000000000e+00
5.0000000000000000e+00
5.0000000000000000e+00
5.0000000000000000e+00
5.0000000000000000e+00
5.0000000000000000e+00


