# vtk DataFile Version 2.0

ASCII

DATASET UNSTRUCTURED_GRID

POINTS 101 float

0.0000000000000000e+00 0.0000000000000000e+00 0.0000000000000000e+00
1.0000000000000001e-01 0.0000000000000000e+00 0.0000000000000000e+00
2.0000000000000001e-01 0.0000000000000000e+00 0.0000000000000000e+00
3.0000000000000004e-01 0.0000000000000000e+00 0.0000000000000000e+00
4.0000000000000002e-01 0.0000000000000000e+00 0.0000000000000000e+00
5.0000000000000000e-01 0.0000000000000000e+00 0.0000000000000000e+00
6.0000000000000009e-01 0.0000000000000000e+00 0.0000000000000000e+00
7.0000000000000007e-01 0.0000000000000000e+00 0.0000000000000000e+00
8.0000000000000004e-01 0.0000000000000000e+00 0.0000000000000000e+00
9.0000000000000002e-01 0.0000000000000000e+00 0.0000000000000000e+00
1.0000000000000000e+00 0.0000000000000000e+00 0.0000000000000000e+00
1.1000000000000001e+00 0.0000000000000000e+00 0.0000000000000000e+00
1.2000000000000002e+00 0.0000000000000000e+00 0.0000000000000000e+00
1.3000000000000000e+00 0.0000000000000000e+00 0.0000000000000000e+00
1.4000000000000001e+00 0.0000000000000000e+00 0.0000000000000000e+00
1.5000000000000000e+00 0.0000000000000000e+00 0.0000000000000000e+00
1.6000000000000001e+00 0.0000000000000000e+00 0.0000000000000000e+00
1.7000000000000002e+00 0.0000000000000000e+00 0.0000000000000000e+00
1.8000000000000000e+00 0.0000000000000000e+00 0.0000000000000000e+00
1.9000000000000001e+00 0.0000000000000000e+00 0.0000000000000000e+00
2.0000000000000000e+00 0.0000000000000000e+00 0.0000000000000000e+00
2.1000000000000001e+00 0.0000000000000000e+00 0.0000000000000000e+00
2.2000000000000002e+00 0.0000000000000000e+00 0.0000000000000000e+00
2.3000000000000003e+00 0.0000000000000000e+00 0.0000000000000000e+00
2.4000000000000004e+00 0.0000000000000000e+00 0.0000000000000000e+00
2.5000000000000000e+00 0.0000000000000000e+00 0.0000000000000000e+00
2.6000000000000001e+00 0.0000000000000000e+00 0.0000000000000000e+00
2.7000000000000002e+00 0.0000000000000000e+00 0.0000000000000000e+00
2.8000000000000003e+00 0.0000000000000000e+00 0.0000000000000000e+00
2.9000000000000004e+00 0.0000000000000000e+00 0.0000000000000000e+00
3.0000000000000000e+00 0.0000000000000000e+00 0.0000000000000000e+00
3.1000000000000001e+00 0.0000000000000000e+00 0.0000000000000000e+00
3.2000000000000002e+00 0.0000000000000000e+00 0.0000000000000000e+00
3.3000000000000003e+00 0.0000000000000000e+00 0.0000000000000000e+00
3.4000000000000004e+00 0.0000000000000000e+00 0.0000000000000000e+00
3.5000000000000000e+00 0.0000000000000000e+00 0.0000000000000000e+00
3.6000000000000001e+00 0.0000000000000000e+00 0.0000000000000000e+00
3.7000000000000002e+00 0.0000000000000000e+00 0.0000000000000000e+00
3.8000000000000003e+00 0.0000000000000000e+00 0.0000000000000000e+00
3.9000000000000004e+00 0.0000000000000000e+00 0.0000000000000000e+00
4.0000000000000000e+00 0.0000000000000000e+00 0.0000000000000000e+00
4.1000000000000005e+00 0.0000000000000000e+00 0.0000000000000000e+00
4.2000000000000002e+00 0.0000000000000000e+00 0.0000000000000000e+00
4.2999999999999998e+00 0.0000000000000000e+00 0.0000000000000000e+00
4.4000000000000004e+00 0.0000000000000000e+00 0.0000000000000000e+00
4.5000000000000000e+00 0.0000000000000000e+00 0.0000000000000000e+00
4.6000000000000005e+00 0.0000000000000000e+00 0.0000000000000000e+00
4.7000000000000002e+00 0.0000000000000000e+00 0.0000000000000000e+00
4.8000000000000007e+00 0.0000000000000000e+00 0.0000000000000000e+00
4.9000000000000004e+00 0.0000000000000000e+00 0.0000000000000000e+00
5.0000000000000000e+00 0.0000000000000000e+00 0.0000000000000000e+00
5.1000000000000005e+00 0.0000000000000000e+00 0.0000000000000000e+00
5.2000000000000002e+00 0.0000000000000000e+00 0.0000000000000000e+00
5.3000000000000007e+00 0.0000000000000000e+00 0.0000000000000000e+00
5.4000000000000004e+00 0.0000000000000000e+00 0.0000000000000000e+00
5.5000000000000000e+00 0.0000000000000000e+00 0.0000000000000000e+00
5.6000000000000005e+00 0.0000000000000000e+00 0.0000000000000000e+00
5.7000000000000002e+00 0.0000000000000000e+00 0.0000000000000000e+00
5.8000000000000007e+00 0.0000000000000000e+00 0.0000000000000000e+00
5.9000000000000004e+00 0.0000000000000000e+00 0.0000000000000000e+00
6.0000000000000000e+00 0.0000000000000000e+00 0.0000000000000000e+00
6.1000000000000005e+00 0.0000000000000000e+00 0.0000000000000000e+00
6.2000000000000002e+00 0.0000000000000000e+00 0.0000000000000000e+00
6.3000000000000007e+00 0.0000000000000000e+00 0.0000000000000000e+00
6.4000000000000004e+00 0.0000000000000000e+00 0.0000000000000000e+00
6.5000000000000000e+00 0.0000000000000000e+00 0.0000000000000000e+00
6.6000000000000005e+00 0.0000000000000000e+00 0.0000000000000000e+00
6.7000000000000002e+00 0.0000000000000000e+00 0.0000000000000000e+00
6.8000000000000007e+00 0.0000000000000000e+00 0.0000000000000000e+00
6.9000000000000004e+00 0.0000000000000000e+00 0.0000000000000000e+00
7.0000000000000000e+00 0.0000000000000000e+00 0.0000000000000000e+00
7.1000000000000005e+00 0.0000000000000000e+00 0.0000000000000000e+00
7.2000000000000002e+00 0.0000000000000000e+00 0.0000000000000000e+00
7.3000000000000007e+00 0.0000000000000000e+00 0.0000000000000000e+00
7.4000000000000004e+00 0.0000000000000000e+00 0.0000000000000000e+00
7.5000000000000000e+00 0.0000000000000000e+00 0.0000000000000000e+00
7.6000000000000005e+00 0.0000000000000000e+00 0.0000000000000000e+00
7.7000000000000002e+00 0.0000000000000000e+00 0.0000000000000000e+00
7.8000000000000007e+00 0.0000000000000000e+00 0.0000000000000000e+00
7.9000000000000004e+00 0.0000000000000000e+00 0.0000000000000000e+00
8.0000000000000000e+00 0.0000000000000000e+00 0.0000000000000000e+00
8.0999999999999996e+00 0.0000000000000000e+00 0.0000000000000000e+00
8.2000000000000011e+00 0.0000000000000000e+00 0.0000000000000000e+00
8.3000000000000007e+00 0.0000000000000000e+00 0.0000000000000000e+00
8.4000000000000004e+00 0.0000000000000000e+00 0.0000000000000000e+00
8.5000000000000000e+00 0.0000000000000000e+00 0.0000000000000000e+00
8.5999999999999996e+00 0.0000000000000000e+00 0.0000000000000000e+00
8.7000000000000011e+00 0.0000000000000000e+00 0.0000000000000000e+00
8.8000000000000007e+00 0.0000000000000000e+00 0.0000000000000000e+00
8.9000000000000004e+00 0.0000000000000000e+00 0.0000000000000000e+00
9.0000000000000000e+00 0.0000000000000000e+00 0.0000000000000000e+00
9.0999999999999996e+00 0.0000000000000000e+00 0.0000000000000000e+00
9.2000000000000011e+00 0.0000000000000000e+00 0.0000000000000000e+00
9.3000000000000007e+00 0.0000000000000000e+00 0.0000000000000000e+00
9.4000000000000004e+00 0.0000000000000000e+00 0.0000000000000000e+00
9.5000000000000000e+00 0.0000000000000000e+00 0.0000000000000000e+00
9.6000000000000014e+00 0.0000000000000000e+00 0.0000000000000000e+00
9.7000000000000011e+00 0.0000000000000000e+00 0.0000000000000000e+00
9.8000000000000007e+00 0.0000000000000000e+00 0.0000000000000000e+00
9.9000000000000004e+00 0.0000000000000000e+00 0.0000000000000000e+00
1.0000000000000000e+01 0.0000000000000000e+00 0.0000000000000000e+00

POINT_DATA 101

VECTORS velocity float
6.9247124519664203e+00 0.0000000000000000e+00 0.0000000000000000e+00
6.9248565129649062e+00 0.0000000000000000e+00 0.0000000000000000e+00
6.9250070207976586e+00 0.0000000000000000e+00 0.0000000000000000e+00
6.9251593468424799e+00 0.0000000000000000e+00 0.0000000000000000e+00
6.9253111544024266e+00 0.0000000000000000e+00 0.0000000000000000e+00
6.9254638996302926e+00 0.0000000000000000e+00 0.0000000000000000e+00
6.9256214486349732e+00 0.0000000000000000e+00 0.0000000000000000e+00
6.9257813309834306e+00 0.0000000000000000e+00 0.0000000000000000e+00
6.9259376940662625e+00 0.0000000000000000e+00 0.0000000000000000e+00
6.9260884096823094e+00 0.0000000000000000e+00 0.0000000000000000e+00
6.9262350653232065e+00 0.0000000000000000e+00 0.0000000000000000e+00
6.9263785366941288e+00 0.0000000000000000e+00 0.0000000000000000e+00
6.9265205888471435e+00 0.0000000000000000e+00 0.0000000000000000e+00
6.9266647363689593e+00 0.0000000000000000e+00 0.0000000000000000e+00
6.9268107551602229e+00 0.0000000000000000e+00 0.0000000000000000e+00
6.9269569871528649e+00 0.0000000000000000e+00 0.0000000000000000e+00
6.9270993259346811e+00 0.0000000000000000e+00 0.0000000000000000e+00
6.9272358851002425e+00 0.0000000000000000e+00 0.0000000000000000e+00
6.9273703293135158e+00 0.0000000000000000e+00 0.0000000000000000e+00
6.9275038246708185e+00 0.0000000000000000e+00 0.0000000000000000e+00
6.9276353892609404e+00 0.0000000000000000e+00 0.0000000000000000e+00
6.9277647956646229e+00 0.0000000000000000e+00 0.0000000000000000e+00
6.9278921515318066e+00 0.0000000000000000e+00 0.0000000000000000e+00
6.9280178641663435e+00 0.0000000000000000e+00 0.0000000000000000e+00
6.9281456039606306e+00 0.0000000000000000e+00 0.0000000000000000e+00
6.9282729004155641e+00 0.0000000000000000e+00 0.0000000000000000e+00
6.9283963791373129e+00 0.0000000000000000e+00 0.0000000000000000e+00
6.9285176484701916e+00 0.0000000000000000e+00 0.0000000000000000e+00
6.9286370759002978e+00 0.0000000000000000e+00 0.0000000000000000e+00
6.9287538494900653e+00 0.0000000000000000e+00 0.0000000000000000e+00
6.9288675594231952e+00 0.0000000000000000e+00 0.0000000000000000e+00
6.9289788817613882e+00 0.0000000000000000e+00 0.0000000000000000e+00
6.9290885639231847e+00 0.0000000000000000e+00 0.0000000000000000e+00
6.9291973896344832e+00 0.0000000000000000e+00 0.0000000000000000e+00
6.9293049919723817e+00 0.0000000000000000e+00 0.0000000000000000e+00
6.9294110663684378e+00 0.0000000000000000e+00 0.0000000000000000e+00
6.9295155202133971e+00 0.0000000000000000e+00 0.0000000000000000e+00
6.9296182907021402e+00 0.0000000000000000e+00 0.0000000000000000e+00
6.9297193516733477e+00 0.0000000000000000e+00 0.0000000000000000e+00
6.9298186318461390e+00 0.0000000000000000e+00 0.0000000000000000e+00
6.9299160660926065e+00 0.0000000000000000e+00 0.0000000000000000e+00
6.9300116990104161e+00 0.0000000000000000e+00 0.0000000000000000e+00
6.9301055286276974e+00 0.0000000000000000e+00 0.0000000000000000e+00
6.9301975539207250e+00 0.0000000000000000e+00 0.0000000000000000e+00
6.9302877739242126e+00 0.0000000000000000e+00 0.0000000000000000e+00
6.9303761877423158e+00 0.0000000000000000e+00 0.0000000000000000e+00
6.9304627948875677e+00 0.0000000000000000e+00 0.0000000000000000e+00
6.9305475948699167e+00 0.0000000000000000e+00 0.0000000000000000e+00
6.9306305881574275e+00 0.0000000000000000e+00 0.0000000000000000e+00
6.9307117750857596e+00 0.0000000000000000e+00 0.0000000000000000e+00
6.9307911556508106e+00 0.0000000000000000e+00 0.0000000000000000e+00
6.9308687305851047e+00 0.0000000000000000e+00 0.0000000000000000e+00
6.9309445001898453e+00 0.0000000000000000e+00 0.0000000000000000e+00
6.9310184648954651e+00 0.0000000000000000e+00 0.0000000000000000e+00
6.9310906255492251e+00 0.0000000000000000e+00 0.0000000000000000e+00
6.9311609827230258e+00 0.0000000000000000e+00 0.0000000000000000e+00
6.9312295362938068e+00 0.0000000000000000e+00 0.0000000000000000e+00
6.9312962869946277e+00 0.0000000000000000e+00 0.0000000000000000e+00
6.9313612361566337e+00 0.0000000000000000e+00 0.0000000000000000e+00
6.9314243842127476e+00 0.0000000000000000e+00 0.0000000000000000e+00
6.9314857316434138e+00 0.0000000000000000e+00 0.0000000000000000e+00
6.9315452794801349e+00 0.0000000000000000e+00 0.0000000000000000e+00
6.9316030284457302e+00 0.0000000000000000e+00 0.0000000000000000e+00
6.9316589787860661e+00 0.0000000000000000e+00 0.0000000000000000e+00
6.9317131311309943e+00 0.0000000000000000e+00 0.0000000000000000e+00
6.9317654861631448e+00 0.0000000000000000e+00 0.0000000000000000e+00
6.9318160444617289e+00 0.0000000000000000e+00 0.0000000000000000e+00
6.9318648068188775e+00 0.0000000000000000e+00 0.0000000000000000e+00
6.9319117739808815e+00 0.0000000000000000e+00 0.0000000000000000e+00
6.9319569466038464e+00 0.0000000000000000e+00 0.0000000000000000e+00
6.9320003253442852e+00 0.0000000000000000e+00 0.0000000000000000e+00
6.9320419109359621e+00 0.0000000000000000e+00 0.0000000000000000e+00
6.9320817040382616e+00 0.0000000000000000e+00 0.0000000000000000e+00
6.9321197053635784e+00 0.0000000000000000e+00 0.0000000000000000e+00
6.9321559157291421e+00 0.0000000000000000e+00 0.0000000000000000e+00
6.9321903356008541e+00 0.0000000000000000e+00 0.0000000000000000e+00
6.9322229660417580e+00 0.0000000000000000e+00 0.0000000000000000e+00
6.9322538073748108e+00 0.0000000000000000e+00 0.0000000000000000e+00
6.9322828607745945e+00 0.0000000000000000e+00 0.0000000000000000e+00
6.9323101274430634e+00 0.0000000000000000e+00 0.0000000000000000e+00
6.9323356075266265e+00 0.0000000000000000e+00 0.0000000000000000e+00
6.9323593018456942e+00 0.0000000000000000e+00 0.0000000000000000e+00
6.9323812110687015e+00 0.0000000000000000e+00 0.0000000000000000e+00
6.9324013367291117e+00 0.0000000000000000e+00 0.0000000000000000e+00
6.9324196789398878e+00 0.0000000000000000e+00 0.0000000000000000e+00
6.9324362380188287e+00 0.0000000000000000e+00 0.0000000000000000e+00
6.9324510148712237e+00 0.0000000000000000e+00 0.0000000000000000e+00
6.9324640093823957e+00 0.0000000000000000e+00 0.0000000000000000e+00
6.9324752231698090e+00 0.0000000000000000e+00 0.0000000000000000e+00
6.9324846570649230e+00 0.0000000000000000e+00 0.0000000000000000e+00
6.9324923141707870e+00 0.0000000000000000e+00 0.0000000000000000e+00
6.9324981934904377e+00 0.0000000000000000e+00 0.0000000000000000e+00
6.9325022958548388e+00 0.0000000000000000e+00 0.0000000000000000e+00
6.9325046204840595e+00 0.0000000000000000e+00 0.0000000000000000e+00
6.9325051753801805e+00 0.0000000000000000e+00 0.0000000000000000e+00
6.9325039402363737e+00 0.0000000000000000e+00 0.0000000000000000e+00
6.9325009709496532e+00 0.0000000000000000e+00 0.0000000000000000e+00
6.9324961255398216e+00 0.0000000000000000e+00 0.0000000000000000e+00
6.9324897742560392e+00 0.0000000000000000e+00 0.0000000000000000e+00
6.9324809640989882e+00 0.0000000000000000e+00 0.0000000000000000e+00
6.9324721539419372e+00 0.0000000000000000e+00 0.0000000000000000e+00


SCALARS pressure float
LOOKUP_TABLE default
-2.1173820032253157e+00
-2.0991821788285550e+00
-2.0809823544317942e+00
-2.0627612565271085e+00
-2.0444918878141416e+00
-2.0261557459701054e+00
-2.0077544029579868e+00
-1.9893070467724270e+00
-1.9708092447577270e+00
-1.9522329566220611e+00
-1.9335594627451529e+00
-1.9147904093338053e+00
-1.8959308549852081e+00
-1.8769910459664494e+00
-1.8579910154731858e+00
-1.8389367037393614e+00
-1.8198227750615625e+00
-1.8006289695470352e+00
-1.7813404386573486e+00
-1.7619696590451221e+00
-1.7425263785176364e+00
-1.7230095513307859e+00
-1.7034182169761383e+00
-1.6837530125449589e+00
-1.6640164753975457e+00
-1.6442266113414836e+00
-1.6243780774682108e+00
-1.6044539886012952e+00
-1.5844567050970928e+00
-1.5643891171350139e+00
-1.5442488250908220e+00
-1.5240335635990254e+00
-1.5037461452519563e+00
-1.4833913702641304e+00
-1.4629748472917015e+00
-1.4424971034838150e+00
-1.4219572917716075e+00
-1.4013551037533094e+00
-1.3806905423312377e+00
-1.3599639014056961e+00
-1.3391753042117371e+00
-1.3183248037503681e+00
-1.2974129951868005e+00
-1.2764404455112164e+00
-1.2554077232530976e+00
-1.2343154017330831e+00
-1.2131640587466157e+00
-1.1919542771730030e+00
-1.1706866427966029e+00
-1.1493617476965334e+00
-1.1279801860791439e+00
-1.1065425518253988e+00
-1.0850494425931840e+00
-1.0635014557555975e+00
-1.0418991896286867e+00
-1.0202432451652195e+00
-9.9853422330271180e-01
-9.7677272209150667e-01
-9.5495934296327767e-01
-9.3309469162743142e-01
-9.1117937138848570e-01
-8.8921398533677332e-01
-8.6719913936756521e-01
-8.4513543918250889e-01
-8.2302348852471385e-01
-8.0086389259101776e-01
-7.7865725761364446e-01
-7.5640418998276659e-01
-7.3410529742807029e-01
-7.1176118819900702e-01
-6.8937247057772322e-01
-6.6693975313345255e-01
-6.4446364515165455e-01
-6.2194475606610489e-01
-5.9938369586744655e-01
-5.7678107546652102e-01
-5.5413750468133671e-01
-5.3145359600168018e-01
-5.0872995956198352e-01
-4.8596720891686962e-01
-4.6316595912404751e-01
-4.4032682097365572e-01
-4.1745040717903903e-01
-3.9453733057524160e-01
-3.7158820836132034e-01
-3.4860365268582594e-01
-3.2558427500046233e-01
-3.0253068938194744e-01
-2.7944350638686122e-01
-2.5632334371753684e-01
-2.3317081789590755e-01
-2.0998655561599230e-01
-1.8677116790658252e-01
-1.6352526922713656e-01
-1.4024946836746680e-01
-1.1694441179468937e-01
-9.3610630531696964e-02
-7.0248961973936888e-02
-4.6859451810331500e-02
-2.3444192244812423e-02
0.0000000000000000e+00


SCALARS diameter float
LOOKUP_TABLE default
9.9980607015370293e-01
9.9980912772981456e-01
9.9981111798030364e-01
9.9981333927047966e-01
9.9981575748563500e-01
9.9981821122707426e-01
9.9981926654898223e-01
9.9981942417573888e-01
9.9982036693230403e-01
9.9982255338095971e-01
9.9982519766970190e-01
9.9982788348985685e-01
9.9983050618247904e-01
9.9983219204279972e-01
9.9983292381440980e-01
9.9983357327309952e-01
9.9983457223566086e-01
9.9983698216316519e-01
9.9983928928164600e-01
9.9984117124679350e-01
9.9984301563495359e-01
9.9984504890694992e-01
9.9984706825297620e-01
9.9984914662124647e-01
9.9985054596029477e-01
9.9985117601988094e-01
9.9985289335849081e-01
9.9985461362041628e-01
9.9985634396792489e-01
9.9985811947156067e-01
9.9986029990203851e-01
9.9986248621230556e-01
9.9986466261439055e-01
9.9986654268296893e-01
9.9986831764605288e-01
9.9987010147281363e-01
9.9987189420630995e-01
9.9987369603502430e-01
9.9987550677082315e-01
9.9987732867704160e-01
9.9987918544520082e-01
9.9988104719705917e-01
9.9988291534426743e-01
9.9988479008389652e-01
9.9988667145598698e-01
9.9988855950206834e-01
9.9989045420262967e-01
9.9989235551456412e-01
9.9989426337217358e-01
9.9989617747990878e-01
9.9989809800424467e-01
9.9990002469785422e-01
9.9990195750723943e-01
9.9990389640063781e-01
9.9990584119895876e-01
9.9990779177830169e-01
9.9990974820973966e-01
9.9991171046502825e-01
9.9991367814241261e-01
9.9991565122627601e-01
9.9991762971352605e-01
9.9991961341452662e-01
9.9992160216458958e-01
9.9992359600919922e-01
9.9992559487216270e-01
9.9992759859496105e-01
9.9992960712715173e-01
9.9993162033074745e-01
9.9993363808294011e-01
9.9993566030031367e-01
9.9993768689326823e-01
9.9993971775714874e-01
9.9994175278431052e-01
9.9994379189647276e-01
9.9994583494788358e-01
9.9994788188168182e-01
9.9994993259953380e-01
9.9995198691190545e-01
9.9995404491214046e-01
9.9995610604343610e-01
9.9995817063468229e-01
9.9996023841622661e-01
9.9996230938225117e-01
9.9996438324079329e-01
9.9996645989502397e-01
9.9996853962660714e-01
9.9997062201156395e-01
9.9997270726579313e-01
9.9997479512316811e-01
9.9997688525650175e-01
9.9997897750101450e-01
9.9998107133331748e-01
9.9998316794792341e-01
9.9998526603039883e-01
9.9998736612626504e-01
9.9998946794260701e-01
9.9999157142517048e-01
9.9999367644984538e-01
9.9999578287333679e-01
9.9999789059215083e-01
9.9999999994893329e-01


SCALARS iters float
LOOKUP_TABLE default
3.0000000000000000e+00
3.0000000000000000e+00
3.0000000000000000e+00
3.0000000000000000e+00
3.0000000000000000e+00
3.0000000000000000e+00
3.0000000000000000e+00
3.0000000000000000e+00
3.0000000000000000e+00
3.0000000000000000e+00
3.0000000000000000e+00
3.0000000000000000e+00
3.0000000000000000e+00
3.0000000000000000e+00
3.0000000000000000e+00
3.0000000000000000e+00
3.0000000000000000e+00
3.0000000000000000e+00
3.0000000000000000e+00
3.0000000000000000e+00
3.0000000000000000e+00
3.0000000000000000e+00
3.0000000000000000e+00
3.0000000000000000e+00
3.0000000000000000e+00
3.0000000000000000e+00
3.0000000000000000e+00
3.0000000000000000e+00
3.0000000000000000e+00
3.0000000000000000e+00
3.0000000000000000e+00
3.0000000000000000e+00
3.0000000000000000e+00
3.0000000000000000e+00
3.0000000000000000e+00
3.0000000000000000e+00
3.0000000000000000e+00
3.0000000000000000e+00
3.0000000000000000e+00
3.0000000000000000e+00
3.0000000000000000e+00
3.0000000000000000e+00
3.0000000000000000e+00
3.0000000000000000e+00
3.0000000000000000e+00
3.0000000000000000e+00
3.0000000000000000e+00
3.0000000000000000e+00
3.0000000000000000e+00
3.0000000000000000e+00
3.0000000000000000e+00
3.0000000000000000e+00
3.0000000000000000e+00
3.0000000000000000e+00
3.0000000000000000e+00
3.0000000000000000e+00
3.0000000000000000e+00
3.0000000000000000e+00
3.0000000000000000e+00
3.0000000000000000e+00
3.0000000000000000e+00
3.0000000000000000e+00
3.0000000000000000e+00
3.0000000000000000e+00
3.0000000000000000e+00
3.0000000000000000e+00
3.0000000000000000e+00
3.0000000000000000e+00
3.0000000000000000e+00
3.0000000000000000e+00
3.0000000000000000e+00
3.0000000000000000e+00
3.0000000000000000e+00
3.0000000000000000e+00
3.0000000000000000e+00
3.0000000000000000e+00
3.0000000000000000e+00
3.0000000000000000e+00
3.0000000000000000e+00
3.0000000000000000e+00
3.0000000000000000e+00
3.0000000000000000e+00
3.0000000000000000e+00
3.0000000000000000e+00
3.0000000000000000e+00
3.0000000000000000e+00
3.0000000000000000e+00
3.0000000000000000e+00
3.0000000000000000e+00
3.0000000000000000e+00
3.0000000000000000e+00
3.0000000000000000e+00
3.0000000000000000e+00
3.0000000000000000e+00
3.0000000000000000e+00
3.0000000000000000e+00
3.0000000000000000e+00
3.0000000000000000e+00
3.0000000000000000e+00
3.0000000000000000e+00
3.0000000000000000e+00


