# vtk DataFile Version 2.0

ASCII

DATASET UNSTRUCTURED_GRID

POINTS 101 float

0.0000000000000000e+00 0.0000000000000000e+00 0.0000000000000000e+00
1.0000000000000001e-01 0.0000000000000000e+00 0.0000000000000000e+00
2.0000000000000001e-01 0.0000000000000000e+00 0.0000000000000000e+00
3.0000000000000004e-01 0.0000000000000000e+00 0.0000000000000000e+00
4.0000000000000002e-01 0.0000000000000000e+00 0.0000000000000000e+00
5.0000000000000000e-01 0.0000000000000000e+00 0.0000000000000000e+00
6.0000000000000009e-01 0.0000000000000000e+00 0.0000000000000000e+00
7.0000000000000007e-01 0.0000000000000000e+00 0.0000000000000000e+00
8.0000000000000004e-01 0.0000000000000000e+00 0.0000000000000000e+00
9.0000000000000002e-01 0.0000000000000000e+00 0.0000000000000000e+00
1.0000000000000000e+00 0.0000000000000000e+00 0.0000000000000000e+00
1.1000000000000001e+00 0.0000000000000000e+00 0.0000000000000000e+00
1.2000000000000002e+00 0.0000000000000000e+00 0.0000000000000000e+00
1.3000000000000000e+00 0.0000000000000000e+00 0.0000000000000000e+00
1.4000000000000001e+00 0.0000000000000000e+00 0.0000000000000000e+00
1.5000000000000000e+00 0.0000000000000000e+00 0.0000000000000000e+00
1.6000000000000001e+00 0.0000000000000000e+00 0.0000000000000000e+00
1.7000000000000002e+00 0.0000000000000000e+00 0.0000000000000000e+00
1.8000000000000000e+00 0.0000000000000000e+00 0.0000000000000000e+00
1.9000000000000001e+00 0.0000000000000000e+00 0.0000000000000000e+00
2.0000000000000000e+00 0.0000000000000000e+00 0.0000000000000000e+00
2.1000000000000001e+00 0.0000000000000000e+00 0.0000000000000000e+00
2.2000000000000002e+00 0.0000000000000000e+00 0.0000000000000000e+00
2.3000000000000003e+00 0.0000000000000000e+00 0.0000000000000000e+00
2.4000000000000004e+00 0.0000000000000000e+00 0.0000000000000000e+00
2.5000000000000000e+00 0.0000000000000000e+00 0.0000000000000000e+00
2.6000000000000001e+00 0.0000000000000000e+00 0.0000000000000000e+00
2.7000000000000002e+00 0.0000000000000000e+00 0.0000000000000000e+00
2.8000000000000003e+00 0.0000000000000000e+00 0.0000000000000000e+00
2.9000000000000004e+00 0.0000000000000000e+00 0.0000000000000000e+00
3.0000000000000000e+00 0.0000000000000000e+00 0.0000000000000000e+00
3.1000000000000001e+00 0.0000000000000000e+00 0.0000000000000000e+00
3.2000000000000002e+00 0.0000000000000000e+00 0.0000000000000000e+00
3.3000000000000003e+00 0.0000000000000000e+00 0.0000000000000000e+00
3.4000000000000004e+00 0.0000000000000000e+00 0.0000000000000000e+00
3.5000000000000000e+00 0.0000000000000000e+00 0.0000000000000000e+00
3.6000000000000001e+00 0.0000000000000000e+00 0.0000000000000000e+00
3.7000000000000002e+00 0.0000000000000000e+00 0.0000000000000000e+00
3.8000000000000003e+00 0.0000000000000000e+00 0.0000000000000000e+00
3.9000000000000004e+00 0.0000000000000000e+00 0.0000000000000000e+00
4.0000000000000000e+00 0.0000000000000000e+00 0.0000000000000000e+00
4.1000000000000005e+00 0.0000000000000000e+00 0.0000000000000000e+00
4.2000000000000002e+00 0.0000000000000000e+00 0.0000000000000000e+00
4.2999999999999998e+00 0.0000000000000000e+00 0.0000000000000000e+00
4.4000000000000004e+00 0.0000000000000000e+00 0.0000000000000000e+00
4.5000000000000000e+00 0.0000000000000000e+00 0.0000000000000000e+00
4.6000000000000005e+00 0.0000000000000000e+00 0.0000000000000000e+00
4.7000000000000002e+00 0.0000000000000000e+00 0.0000000000000000e+00
4.8000000000000007e+00 0.0000000000000000e+00 0.0000000000000000e+00
4.9000000000000004e+00 0.0000000000000000e+00 0.0000000000000000e+00
5.0000000000000000e+00 0.0000000000000000e+00 0.0000000000000000e+00
5.1000000000000005e+00 0.0000000000000000e+00 0.0000000000000000e+00
5.2000000000000002e+00 0.0000000000000000e+00 0.0000000000000000e+00
5.3000000000000007e+00 0.0000000000000000e+00 0.0000000000000000e+00
5.4000000000000004e+00 0.0000000000000000e+00 0.0000000000000000e+00
5.5000000000000000e+00 0.0000000000000000e+00 0.0000000000000000e+00
5.6000000000000005e+00 0.0000000000000000e+00 0.0000000000000000e+00
5.7000000000000002e+00 0.0000000000000000e+00 0.0000000000000000e+00
5.8000000000000007e+00 0.0000000000000000e+00 0.0000000000000000e+00
5.9000000000000004e+00 0.0000000000000000e+00 0.0000000000000000e+00
6.0000000000000000e+00 0.0000000000000000e+00 0.0000000000000000e+00
6.1000000000000005e+00 0.0000000000000000e+00 0.0000000000000000e+00
6.2000000000000002e+00 0.0000000000000000e+00 0.0000000000000000e+00
6.3000000000000007e+00 0.0000000000000000e+00 0.0000000000000000e+00
6.4000000000000004e+00 0.0000000000000000e+00 0.0000000000000000e+00
6.5000000000000000e+00 0.0000000000000000e+00 0.0000000000000000e+00
6.6000000000000005e+00 0.0000000000000000e+00 0.0000000000000000e+00
6.7000000000000002e+00 0.0000000000000000e+00 0.0000000000000000e+00
6.8000000000000007e+00 0.0000000000000000e+00 0.0000000000000000e+00
6.9000000000000004e+00 0.0000000000000000e+00 0.0000000000000000e+00
7.0000000000000000e+00 0.0000000000000000e+00 0.0000000000000000e+00
7.1000000000000005e+00 0.0000000000000000e+00 0.0000000000000000e+00
7.2000000000000002e+00 0.0000000000000000e+00 0.0000000000000000e+00
7.3000000000000007e+00 0.0000000000000000e+00 0.0000000000000000e+00
7.4000000000000004e+00 0.0000000000000000e+00 0.0000000000000000e+00
7.5000000000000000e+00 0.0000000000000000e+00 0.0000000000000000e+00
7.6000000000000005e+00 0.0000000000000000e+00 0.0000000000000000e+00
7.7000000000000002e+00 0.0000000000000000e+00 0.0000000000000000e+00
7.8000000000000007e+00 0.0000000000000000e+00 0.0000000000000000e+00
7.9000000000000004e+00 0.0000000000000000e+00 0.0000000000000000e+00
8.0000000000000000e+00 0.0000000000000000e+00 0.0000000000000000e+00
8.0999999999999996e+00 0.0000000000000000e+00 0.0000000000000000e+00
8.2000000000000011e+00 0.0000000000000000e+00 0.0000000000000000e+00
8.3000000000000007e+00 0.0000000000000000e+00 0.0000000000000000e+00
8.4000000000000004e+00 0.0000000000000000e+00 0.0000000000000000e+00
8.5000000000000000e+00 0.0000000000000000e+00 0.0000000000000000e+00
8.5999999999999996e+00 0.0000000000000000e+00 0.0000000000000000e+00
8.7000000000000011e+00 0.0000000000000000e+00 0.0000000000000000e+00
8.8000000000000007e+00 0.0000000000000000e+00 0.0000000000000000e+00
8.9000000000000004e+00 0.0000000000000000e+00 0.0000000000000000e+00
9.0000000000000000e+00 0.0000000000000000e+00 0.0000000000000000e+00
9.0999999999999996e+00 0.0000000000000000e+00 0.0000000000000000e+00
9.2000000000000011e+00 0.0000000000000000e+00 0.0000000000000000e+00
9.3000000000000007e+00 0.0000000000000000e+00 0.0000000000000000e+00
9.4000000000000004e+00 0.0000000000000000e+00 0.0000000000000000e+00
9.5000000000000000e+00 0.0000000000000000e+00 0.0000000000000000e+00
9.6000000000000014e+00 0.0000000000000000e+00 0.0000000000000000e+00
9.7000000000000011e+00 0.0000000000000000e+00 0.0000000000000000e+00
9.8000000000000007e+00 0.0000000000000000e+00 0.0000000000000000e+00
9.9000000000000004e+00 0.0000000000000000e+00 0.0000000000000000e+00
1.0000000000000000e+01 0.0000000000000000e+00 0.0000000000000000e+00

POINT_DATA 101

VECTORS velocity float
5.8460379748978148e+00 0.0000000000000000e+00 0.0000000000000000e+00
5.8466467234110233e+00 0.0000000000000000e+00 0.0000000000000000e+00
5.8472416997875039e+00 0.0000000000000000e+00 0.0000000000000000e+00
5.8478222507716664e+00 0.0000000000000000e+00 0.0000000000000000e+00
5.8483902753947685e+00 0.0000000000000000e+00 0.0000000000000000e+00
5.8489512098152003e+00 0.0000000000000000e+00 0.0000000000000000e+00
5.8495109649861492e+00 0.0000000000000000e+00 0.0000000000000000e+00
5.8500688429054932e+00 0.0000000000000000e+00 0.0000000000000000e+00
5.8506212498469958e+00 0.0000000000000000e+00 0.0000000000000000e+00
5.8511684815221603e+00 0.0000000000000000e+00 0.0000000000000000e+00
5.8517109876852995e+00 0.0000000000000000e+00 0.0000000000000000e+00
5.8522487519501665e+00 0.0000000000000000e+00 0.0000000000000000e+00
5.8527838497962463e+00 0.0000000000000000e+00 0.0000000000000000e+00
5.8533201096171412e+00 0.0000000000000000e+00 0.0000000000000000e+00
5.8538564928849874e+00 0.0000000000000000e+00 0.0000000000000000e+00
5.8543911835395743e+00 0.0000000000000000e+00 0.0000000000000000e+00
5.8549182118403760e+00 0.0000000000000000e+00 0.0000000000000000e+00
5.8554344723276834e+00 0.0000000000000000e+00 0.0000000000000000e+00
5.8559461777385060e+00 0.0000000000000000e+00 0.0000000000000000e+00
5.8564561591849351e+00 0.0000000000000000e+00 0.0000000000000000e+00
5.8569629668288838e+00 0.0000000000000000e+00 0.0000000000000000e+00
5.8574651696312019e+00 0.0000000000000000e+00 0.0000000000000000e+00
5.8579626850084887e+00 0.0000000000000000e+00 0.0000000000000000e+00
5.8584557075111041e+00 0.0000000000000000e+00 0.0000000000000000e+00
5.8589487956619211e+00 0.0000000000000000e+00 0.0000000000000000e+00
5.8594409813189570e+00 0.0000000000000000e+00 0.0000000000000000e+00
5.8599259126532175e+00 0.0000000000000000e+00 0.0000000000000000e+00
5.8604058479325083e+00 0.0000000000000000e+00 0.0000000000000000e+00
5.8608813144098146e+00 0.0000000000000000e+00 0.0000000000000000e+00
5.8613514949879555e+00 0.0000000000000000e+00 0.0000000000000000e+00
5.8618158558212192e+00 0.0000000000000000e+00 0.0000000000000000e+00
5.8622750748151180e+00 0.0000000000000000e+00 0.0000000000000000e+00
5.8627299357644400e+00 0.0000000000000000e+00 0.0000000000000000e+00
5.8631814471757320e+00 0.0000000000000000e+00 0.0000000000000000e+00
5.8636292341110545e+00 0.0000000000000000e+00 0.0000000000000000e+00
5.8640728899873658e+00 0.0000000000000000e+00 0.0000000000000000e+00
5.8645122656686492e+00 0.0000000000000000e+00 0.0000000000000000e+00
5.8649472866755055e+00 0.0000000000000000e+00 0.0000000000000000e+00
5.8653778482174808e+00 0.0000000000000000e+00 0.0000000000000000e+00
5.8658040548072430e+00 0.0000000000000000e+00 0.0000000000000000e+00
5.8662260050359176e+00 0.0000000000000000e+00 0.0000000000000000e+00
5.8666435352757000e+00 0.0000000000000000e+00 0.0000000000000000e+00
5.8670565902145766e+00 0.0000000000000000e+00 0.0000000000000000e+00
5.8674651293126026e+00 0.0000000000000000e+00 0.0000000000000000e+00
5.8678691211802363e+00 0.0000000000000000e+00 0.0000000000000000e+00
5.8682685392332763e+00 0.0000000000000000e+00 0.0000000000000000e+00
5.8686633600024996e+00 0.0000000000000000e+00 0.0000000000000000e+00
5.8690535610093795e+00 0.0000000000000000e+00 0.0000000000000000e+00
5.8694391220021007e+00 0.0000000000000000e+00 0.0000000000000000e+00
5.8698200235173452e+00 0.0000000000000000e+00 0.0000000000000000e+00
5.8701962459355883e+00 0.0000000000000000e+00 0.0000000000000000e+00
5.8705677713707543e+00 0.0000000000000000e+00 0.0000000000000000e+00
5.8709345808293874e+00 0.0000000000000000e+00 0.0000000000000000e+00
5.8712966558092408e+00 0.0000000000000000e+00 0.0000000000000000e+00
5.8716539789799604e+00 0.0000000000000000e+00 0.0000000000000000e+00
5.8720065330090279e+00 0.0000000000000000e+00 0.0000000000000000e+00
5.8723543004580563e+00 0.0000000000000000e+00 0.0000000000000000e+00
5.8726972647060185e+00 0.0000000000000000e+00 0.0000000000000000e+00
5.8730354095619592e+00 0.0000000000000000e+00 0.0000000000000000e+00
5.8733687185047989e+00 0.0000000000000000e+00 0.0000000000000000e+00
5.8736971752432110e+00 0.0000000000000000e+00 0.0000000000000000e+00
5.8740207647875611e+00 0.0000000000000000e+00 0.0000000000000000e+00
5.8743394721758584e+00 0.0000000000000000e+00 0.0000000000000000e+00
5.8746532820525781e+00 0.0000000000000000e+00 0.0000000000000000e+00
5.8749621797639247e+00 0.0000000000000000e+00 0.0000000000000000e+00
5.8752661509352251e+00 0.0000000000000000e+00 0.0000000000000000e+00
5.8755651814600220e+00 0.0000000000000000e+00 0.0000000000000000e+00
5.8758592576558621e+00 0.0000000000000000e+00 0.0000000000000000e+00
5.8761483660733695e+00 0.0000000000000000e+00 0.0000000000000000e+00
5.8764324935036258e+00 0.0000000000000000e+00 0.0000000000000000e+00
5.8767116271007591e+00 0.0000000000000000e+00 0.0000000000000000e+00
5.8769857544344708e+00 0.0000000000000000e+00 0.0000000000000000e+00
5.8772548633463506e+00 0.0000000000000000e+00 0.0000000000000000e+00
5.8775189417684892e+00 0.0000000000000000e+00 0.0000000000000000e+00
5.8777779781228965e+00 0.0000000000000000e+00 0.0000000000000000e+00
5.8780319609114073e+00 0.0000000000000000e+00 0.0000000000000000e+00
5.8782808790110384e+00 0.0000000000000000e+00 0.0000000000000000e+00
5.8785247217331289e+00 0.0000000000000000e+00 0.0000000000000000e+00
5.8787634786523046e+00 0.0000000000000000e+00 0.0000000000000000e+00
5.8789971398261445e+00 0.0000000000000000e+00 0.0000000000000000e+00
5.8792256955623747e+00 0.0000000000000000e+00 0.0000000000000000e+00
5.8794491366383781e+00 0.0000000000000000e+00 0.0000000000000000e+00
5.8796674536240285e+00 0.0000000000000000e+00 0.0000000000000000e+00
5.8798806368275436e+00 0.0000000000000000e+00 0.0000000000000000e+00
5.8800886777877945e+00 0.0000000000000000e+00 0.0000000000000000e+00
5.8802915699302716e+00 0.0000000000000000e+00 0.0000000000000000e+00
5.8804893061219561e+00 0.0000000000000000e+00 0.0000000000000000e+00
5.8806818759059825e+00 0.0000000000000000e+00 0.0000000000000000e+00
5.8808692708260022e+00 0.0000000000000000e+00 0.0000000000000000e+00
5.8810514838610182e+00 0.0000000000000000e+00 0.0000000000000000e+00
5.8812285112276941e+00 0.0000000000000000e+00 0.0000000000000000e+00
5.8814003474652834e+00 0.0000000000000000e+00 0.0000000000000000e+00
5.8815669860452902e+00 0.0000000000000000e+00 0.0000000000000000e+00
5.8817284141533479e+00 0.0000000000000000e+00 0.0000000000000000e+00
5.8818846451497446e+00 0.0000000000000000e+00 0.0000000000000000e+00
5.8820356216792158e+00 0.0000000000000000e+00 0.0000000000000000e+00
5.8821814803032781e+00 0.0000000000000000e+00 0.0000000000000000e+00
5.8823218355962732e+00 0.0000000000000000e+00 0.0000000000000000e+00
5.8824577014968087e+00 0.0000000000000000e+00 0.0000000000000000e+00
5.8825863590931160e+00 0.0000000000000000e+00 0.0000000000000000e+00
5.8827150166894242e+00 0.0000000000000000e+00 0.0000000000000000e+00


SCALARS pressure float
LOOKUP_TABLE default
2.1509851602181016e+01
2.1298012043869903e+01
2.1086172485558787e+01
2.0874313006603288e+01
2.0662417595473702e+01
2.0450466959389221e+01
2.0238427598092482e+01
2.0026260535989909e+01
1.9813959528301424e+01
1.9601541189868978e+01
1.9389008750953035e+01
1.9176361814790191e+01
1.8963601498031693e+01
1.8750719294979799e+01
1.8537696214768410e+01
1.8324532962780516e+01
1.8111239555865303e+01
1.7897848301482707e+01
1.7684383905013672e+01
1.7470825584844743e+01
1.7257155085158882e+01
1.7043374981930842e+01
1.6829494698591915e+01
1.6615520662676996e+01
1.6401457397069617e+01
1.6187283140928091e+01
1.5972994621628541e+01
1.5758622859770618e+01
1.5544167844548479e+01
1.5329628929318060e+01
1.5115011218709579e+01
1.4900319964586128e+01
1.4685555093067066e+01
1.4470714460488345e+01
1.4255794206601818e+01
1.4040796221154002e+01
1.3825724063496038e+01
1.3610580623884751e+01
1.3395368308414609e+01
1.3180089560937036e+01
1.2964745870726505e+01
1.2749338490925814e+01
1.2533869811873872e+01
1.2318342054777641e+01
1.2102757342648792e+01
1.1887117739604678e+01
1.1671425277777015e+01
1.1455681969809142e+01
1.1239889820235982e+01
1.1024050822576267e+01
1.0808166964632706e+01
1.0592240233280346e+01
1.0376272607565090e+01
1.0160266069376719e+01
9.9442225986938553e+00
9.7281441695711486e+00
9.5120327547082137e+00
9.2958903266461270e+00
9.0797188536794273e+00
8.8635203009231827e+00
8.6472966339203854e+00
8.4310498169073718e+00
8.2147818073885723e+00
7.9984945605941897e+00
7.7821900325675983e+00
7.5658701760273388e+00
7.3495369411860283e+00
7.1331922759238129e+00
6.9168381251519548e+00
6.7004764314628371e+00
6.4841091351934290e+00
6.2677381739256530e+00
6.0513654820625673e+00
5.8349929913811183e+00
5.6186226319737154e+00
5.4022563305766127e+00
5.1858960121759674e+00
4.9695435988537673e+00
4.7532010094337993e+00
4.5368701597198200e+00
4.3205529618832657e+00
4.1042513254499200e+00
3.8879671562071487e+00
3.6717023590889344e+00
3.4554588393369636e+00
3.2392384962514837e+00
3.0230432174093123e+00
2.8068748889086286e+00
2.5907354117475956e+00
2.3746266807900485e+00
2.1585505818032189e+00
1.9425089813421430e+00
1.7265037484165051e+00
1.5105367556092386e+00
1.2946099073176991e+00
1.0787249884351986e+00
8.6288408986654674e-01
6.4708846308832624e-01
4.3134159068272654e-01
2.1564101528079457e-01
0.0000000000000000e+00


SCALARS diameter float
LOOKUP_TABLE default
1.0019438195739527e+00
1.0019224376259837e+00
1.0019020514541221e+00
1.0018831469479865e+00
1.0018655628899304e+00
1.0018480351157766e+00
1.0018291484248356e+00
1.0018094856761157e+00
1.0017906457917527e+00
1.0017721107294755e+00
1.0017537332010535e+00
1.0017354089595008e+00
1.0017169245428474e+00
1.0016970236277030e+00
1.0016761225834516e+00
1.0016552474104228e+00
1.0016350671934149e+00
1.0016173284990582e+00
1.0015991496876748e+00
1.0015798593116043e+00
1.0015603215005973e+00
1.0015412227801772e+00
1.0015222939949344e+00
1.0015033597674259e+00
1.0014834355568023e+00
1.0014619349604565e+00
1.0014424628321041e+00
1.0014230252569949e+00
1.0014035899895593e+00
1.0013842018080481e+00
1.0013653173650412e+00
1.0013464296136005e+00
1.0013275270128876e+00
1.0013082086012841e+00
1.0012887234031604e+00
1.0012692418141429e+00
1.0012497628536350e+00
1.0012302859269588e+00
1.0012108114206575e+00
1.0011913335659606e+00
1.0011717706227417e+00
1.0011522076682937e+00
1.0011326450928431e+00
1.0011130832640518e+00
1.0010935222210025e+00
1.0010739620048001e+00
1.0010544027144743e+00
1.0010348443980908e+00
1.0010152873219811e+00
1.0009957309608926e+00
1.0009761758217648e+00
1.0009566214736572e+00
1.0009370681083800e+00
1.0009175159834209e+00
1.0008979649289460e+00
1.0008784149191454e+00
1.0008588660865516e+00
1.0008393184091051e+00
1.0008197717972760e+00
1.0008002263330056e+00
1.0007806822086271e+00
1.0007611392588112e+00
1.0007415973297322e+00
1.0007220566499957e+00
1.0007025172308903e+00
1.0006829790454836e+00
1.0006634421464229e+00
1.0006439065060406e+00
1.0006243721365771e+00
1.0006048390650328e+00
1.0005853073100341e+00
1.0005657768507921e+00
1.0005462476659033e+00
1.0005267198169630e+00
1.0005071933121539e+00
1.0004876681629264e+00
1.0004681444649925e+00
1.0004486221333475e+00
1.0004291012537367e+00
1.0004095817018095e+00
1.0003900635968699e+00
1.0003705467139110e+00
1.0003510312969761e+00
1.0003315173652290e+00
1.0003120052099344e+00
1.0002924940040852e+00
1.0002729837939124e+00
1.0002534750671015e+00
1.0002339687551047e+00
1.0002144638218848e+00
1.0001949605213858e+00
1.0001754572030590e+00
1.0001559558792896e+00
1.0001364559708614e+00
1.0001169577230640e+00
1.0000974608976663e+00
1.0000779656125687e+00
1.0000584718198815e+00
1.0000389797342304e+00
1.0000194892427041e+00
9.9999999974288722e-01


SCALARS iters float
LOOKUP_TABLE default
4.0000000000000000e+00
4.0000000000000000e+00
4.0000000000000000e+00
4.0000000000000000e+00
4.0000000000000000e+00
4.0000000000000000e+00
4.0000000000000000e+00
4.0000000000000000e+00
4.0000000000000000e+00
4.0000000000000000e+00
4.0000000000000000e+00
4.0000000000000000e+00
4.0000000000000000e+00
4.0000000000000000e+00
4.0000000000000000e+00
4.0000000000000000e+00
4.0000000000000000e+00
4.0000000000000000e+00
4.0000000000000000e+00
4.0000000000000000e+00
4.0000000000000000e+00
4.0000000000000000e+00
4.0000000000000000e+00
4.0000000000000000e+00
4.0000000000000000e+00
4.0000000000000000e+00
4.0000000000000000e+00
4.0000000000000000e+00
4.0000000000000000e+00
4.0000000000000000e+00
4.0000000000000000e+00
4.0000000000000000e+00
4.0000000000000000e+00
4.0000000000000000e+00
4.0000000000000000e+00
4.0000000000000000e+00
4.0000000000000000e+00
4.0000000000000000e+00
4.0000000000000000e+00
4.0000000000000000e+00
4.0000000000000000e+00
4.0000000000000000e+00
4.0000000000000000e+00
4.0000000000000000e+00
4.0000000000000000e+00
4.0000000000000000e+00
4.0000000000000000e+00
4.0000000000000000e+00
4.0000000000000000e+00
4.0000000000000000e+00
4.0000000000000000e+00
4.0000000000000000e+00
4.0000000000000000e+00
4.0000000000000000e+00
4.0000000000000000e+00
4.0000000000000000e+00
4.0000000000000000e+00
4.0000000000000000e+00
4.0000000000000000e+00
4.0000000000000000e+00
4.0000000000000000e+00
4.0000000000000000e+00
4.0000000000000000e+00
4.0000000000000000e+00
4.0000000000000000e+00
4.0000000000000000e+00
4.0000000000000000e+00
4.0000000000000000e+00
4.0000000000000000e+00
4.0000000000000000e+00
4.0000000000000000e+00
4.0000000000000000e+00
4.0000000000000000e+00
4.0000000000000000e+00
4.0000000000000000e+00
4.0000000000000000e+00
4.0000000000000000e+00
4.0000000000000000e+00
4.0000000000000000e+00
4.0000000000000000e+00
4.0000000000000000e+00
4.0000000000000000e+00
4.0000000000000000e+00
4.0000000000000000e+00
4.0000000000000000e+00
4.0000000000000000e+00
4.0000000000000000e+00
4.0000000000000000e+00
4.0000000000000000e+00
4.0000000000000000e+00
4.0000000000000000e+00
4.0000000000000000e+00
4.0000000000000000e+00
4.0000000000000000e+00
4.0000000000000000e+00
4.0000000000000000e+00
4.0000000000000000e+00
4.0000000000000000e+00
4.0000000000000000e+00
4.0000000000000000e+00
4.0000000000000000e+00


