# vtk DataFile Version 2.0

ASCII

DATASET UNSTRUCTURED_GRID

POINTS 101 float

0.0000000000000000e+00 0.0000000000000000e+00 0.0000000000000000e+00
1.0000000000000001e-01 0.0000000000000000e+00 0.0000000000000000e+00
2.0000000000000001e-01 0.0000000000000000e+00 0.0000000000000000e+00
3.0000000000000004e-01 0.0000000000000000e+00 0.0000000000000000e+00
4.0000000000000002e-01 0.0000000000000000e+00 0.0000000000000000e+00
5.0000000000000000e-01 0.0000000000000000e+00 0.0000000000000000e+00
6.0000000000000009e-01 0.0000000000000000e+00 0.0000000000000000e+00
7.0000000000000007e-01 0.0000000000000000e+00 0.0000000000000000e+00
8.0000000000000004e-01 0.0000000000000000e+00 0.0000000000000000e+00
9.0000000000000002e-01 0.0000000000000000e+00 0.0000000000000000e+00
1.0000000000000000e+00 0.0000000000000000e+00 0.0000000000000000e+00
1.1000000000000001e+00 0.0000000000000000e+00 0.0000000000000000e+00
1.2000000000000002e+00 0.0000000000000000e+00 0.0000000000000000e+00
1.3000000000000000e+00 0.0000000000000000e+00 0.0000000000000000e+00
1.4000000000000001e+00 0.0000000000000000e+00 0.0000000000000000e+00
1.5000000000000000e+00 0.0000000000000000e+00 0.0000000000000000e+00
1.6000000000000001e+00 0.0000000000000000e+00 0.0000000000000000e+00
1.7000000000000002e+00 0.0000000000000000e+00 0.0000000000000000e+00
1.8000000000000000e+00 0.0000000000000000e+00 0.0000000000000000e+00
1.9000000000000001e+00 0.0000000000000000e+00 0.0000000000000000e+00
2.0000000000000000e+00 0.0000000000000000e+00 0.0000000000000000e+00
2.1000000000000001e+00 0.0000000000000000e+00 0.0000000000000000e+00
2.2000000000000002e+00 0.0000000000000000e+00 0.0000000000000000e+00
2.3000000000000003e+00 0.0000000000000000e+00 0.0000000000000000e+00
2.4000000000000004e+00 0.0000000000000000e+00 0.0000000000000000e+00
2.5000000000000000e+00 0.0000000000000000e+00 0.0000000000000000e+00
2.6000000000000001e+00 0.0000000000000000e+00 0.0000000000000000e+00
2.7000000000000002e+00 0.0000000000000000e+00 0.0000000000000000e+00
2.8000000000000003e+00 0.0000000000000000e+00 0.0000000000000000e+00
2.9000000000000004e+00 0.0000000000000000e+00 0.0000000000000000e+00
3.0000000000000000e+00 0.0000000000000000e+00 0.0000000000000000e+00
3.1000000000000001e+00 0.0000000000000000e+00 0.0000000000000000e+00
3.2000000000000002e+00 0.0000000000000000e+00 0.0000000000000000e+00
3.3000000000000003e+00 0.0000000000000000e+00 0.0000000000000000e+00
3.4000000000000004e+00 0.0000000000000000e+00 0.0000000000000000e+00
3.5000000000000000e+00 0.0000000000000000e+00 0.0000000000000000e+00
3.6000000000000001e+00 0.0000000000000000e+00 0.0000000000000000e+00
3.7000000000000002e+00 0.0000000000000000e+00 0.0000000000000000e+00
3.8000000000000003e+00 0.0000000000000000e+00 0.0000000000000000e+00
3.9000000000000004e+00 0.0000000000000000e+00 0.0000000000000000e+00
4.0000000000000000e+00 0.0000000000000000e+00 0.0000000000000000e+00
4.1000000000000005e+00 0.0000000000000000e+00 0.0000000000000000e+00
4.2000000000000002e+00 0.0000000000000000e+00 0.0000000000000000e+00
4.2999999999999998e+00 0.0000000000000000e+00 0.0000000000000000e+00
4.4000000000000004e+00 0.0000000000000000e+00 0.0000000000000000e+00
4.5000000000000000e+00 0.0000000000000000e+00 0.0000000000000000e+00
4.6000000000000005e+00 0.0000000000000000e+00 0.0000000000000000e+00
4.7000000000000002e+00 0.0000000000000000e+00 0.0000000000000000e+00
4.8000000000000007e+00 0.0000000000000000e+00 0.0000000000000000e+00
4.9000000000000004e+00 0.0000000000000000e+00 0.0000000000000000e+00
5.0000000000000000e+00 0.0000000000000000e+00 0.0000000000000000e+00
5.1000000000000005e+00 0.0000000000000000e+00 0.0000000000000000e+00
5.2000000000000002e+00 0.0000000000000000e+00 0.0000000000000000e+00
5.3000000000000007e+00 0.0000000000000000e+00 0.0000000000000000e+00
5.4000000000000004e+00 0.0000000000000000e+00 0.0000000000000000e+00
5.5000000000000000e+00 0.0000000000000000e+00 0.0000000000000000e+00
5.6000000000000005e+00 0.0000000000000000e+00 0.0000000000000000e+00
5.7000000000000002e+00 0.0000000000000000e+00 0.0000000000000000e+00
5.8000000000000007e+00 0.0000000000000000e+00 0.0000000000000000e+00
5.9000000000000004e+00 0.0000000000000000e+00 0.0000000000000000e+00
6.0000000000000000e+00 0.0000000000000000e+00 0.0000000000000000e+00
6.1000000000000005e+00 0.0000000000000000e+00 0.0000000000000000e+00
6.2000000000000002e+00 0.0000000000000000e+00 0.0000000000000000e+00
6.3000000000000007e+00 0.0000000000000000e+00 0.0000000000000000e+00
6.4000000000000004e+00 0.0000000000000000e+00 0.0000000000000000e+00
6.5000000000000000e+00 0.0000000000000000e+00 0.0000000000000000e+00
6.6000000000000005e+00 0.0000000000000000e+00 0.0000000000000000e+00
6.7000000000000002e+00 0.0000000000000000e+00 0.0000000000000000e+00
6.8000000000000007e+00 0.0000000000000000e+00 0.0000000000000000e+00
6.9000000000000004e+00 0.0000000000000000e+00 0.0000000000000000e+00
7.0000000000000000e+00 0.0000000000000000e+00 0.0000000000000000e+00
7.1000000000000005e+00 0.0000000000000000e+00 0.0000000000000000e+00
7.2000000000000002e+00 0.0000000000000000e+00 0.0000000000000000e+00
7.3000000000000007e+00 0.0000000000000000e+00 0.0000000000000000e+00
7.4000000000000004e+00 0.0000000000000000e+00 0.0000000000000000e+00
7.5000000000000000e+00 0.0000000000000000e+00 0.0000000000000000e+00
7.6000000000000005e+00 0.0000000000000000e+00 0.0000000000000000e+00
7.7000000000000002e+00 0.0000000000000000e+00 0.0000000000000000e+00
7.8000000000000007e+00 0.0000000000000000e+00 0.0000000000000000e+00
7.9000000000000004e+00 0.0000000000000000e+00 0.0000000000000000e+00
8.0000000000000000e+00 0.0000000000000000e+00 0.0000000000000000e+00
8.0999999999999996e+00 0.0000000000000000e+00 0.0000000000000000e+00
8.2000000000000011e+00 0.0000000000000000e+00 0.0000000000000000e+00
8.3000000000000007e+00 0.0000000000000000e+00 0.0000000000000000e+00
8.4000000000000004e+00 0.0000000000000000e+00 0.0000000000000000e+00
8.5000000000000000e+00 0.0000000000000000e+00 0.0000000000000000e+00
8.5999999999999996e+00 0.0000000000000000e+00 0.0000000000000000e+00
8.7000000000000011e+00 0.0000000000000000e+00 0.0000000000000000e+00
8.8000000000000007e+00 0.0000000000000000e+00 0.0000000000000000e+00
8.9000000000000004e+00 0.0000000000000000e+00 0.0000000000000000e+00
9.0000000000000000e+00 0.0000000000000000e+00 0.0000000000000000e+00
9.0999999999999996e+00 0.0000000000000000e+00 0.0000000000000000e+00
9.2000000000000011e+00 0.0000000000000000e+00 0.0000000000000000e+00
9.3000000000000007e+00 0.0000000000000000e+00 0.0000000000000000e+00
9.4000000000000004e+00 0.0000000000000000e+00 0.0000000000000000e+00
9.5000000000000000e+00 0.0000000000000000e+00 0.0000000000000000e+00
9.6000000000000014e+00 0.0000000000000000e+00 0.0000000000000000e+00
9.7000000000000011e+00 0.0000000000000000e+00 0.0000000000000000e+00
9.8000000000000007e+00 0.0000000000000000e+00 0.0000000000000000e+00
9.9000000000000004e+00 0.0000000000000000e+00 0.0000000000000000e+00
1.0000000000000000e+01 0.0000000000000000e+00 0.0000000000000000e+00

POINT_DATA 101

VECTORS velocity float
5.5343299015572720e+00 0.0000000000000000e+00 0.0000000000000000e+00
5.5343642876572448e+00 0.0000000000000000e+00 0.0000000000000000e+00
5.5343777460305787e+00 0.0000000000000000e+00 0.0000000000000000e+00
5.5343749474020560e+00 0.0000000000000000e+00 0.0000000000000000e+00
5.5343625281464046e+00 0.0000000000000000e+00 0.0000000000000000e+00
5.5343460549772319e+00 0.0000000000000000e+00 0.0000000000000000e+00
5.5343302814183151e+00 0.0000000000000000e+00 0.0000000000000000e+00
5.5343180664950786e+00 0.0000000000000000e+00 0.0000000000000000e+00
5.5343064701876834e+00 0.0000000000000000e+00 0.0000000000000000e+00
5.5342935525598351e+00 0.0000000000000000e+00 0.0000000000000000e+00
5.5342806429469835e+00 0.0000000000000000e+00 0.0000000000000000e+00
5.5342685077755620e+00 0.0000000000000000e+00 0.0000000000000000e+00
5.5342581404685856e+00 0.0000000000000000e+00 0.0000000000000000e+00
5.5342516343796389e+00 0.0000000000000000e+00 0.0000000000000000e+00
5.5342489899673311e+00 0.0000000000000000e+00 0.0000000000000000e+00
5.5342500535140688e+00 0.0000000000000000e+00 0.0000000000000000e+00
5.5342505059209737e+00 0.0000000000000000e+00 0.0000000000000000e+00
5.5342469973476502e+00 0.0000000000000000e+00 0.0000000000000000e+00
5.5342437721539106e+00 0.0000000000000000e+00 0.0000000000000000e+00
5.5342429883841415e+00 0.0000000000000000e+00 0.0000000000000000e+00
5.5342443929892973e+00 0.0000000000000000e+00 0.0000000000000000e+00
5.5342484853104335e+00 0.0000000000000000e+00 0.0000000000000000e+00
5.5342562282991556e+00 0.0000000000000000e+00 0.0000000000000000e+00
5.5342676439706162e+00 0.0000000000000000e+00 0.0000000000000000e+00
5.5342799533517661e+00 0.0000000000000000e+00 0.0000000000000000e+00
5.5342924270649076e+00 0.0000000000000000e+00 0.0000000000000000e+00
5.5343060640846407e+00 0.0000000000000000e+00 0.0000000000000000e+00
5.5343209937726341e+00 0.0000000000000000e+00 0.0000000000000000e+00
5.5343374207380123e+00 0.0000000000000000e+00 0.0000000000000000e+00
5.5343547094988255e+00 0.0000000000000000e+00 0.0000000000000000e+00
5.5343724528469798e+00 0.0000000000000000e+00 0.0000000000000000e+00
5.5343911611239314e+00 0.0000000000000000e+00 0.0000000000000000e+00
5.5344115128296032e+00 0.0000000000000000e+00 0.0000000000000000e+00
5.5344342254749614e+00 0.0000000000000000e+00 0.0000000000000000e+00
5.5344589662414831e+00 0.0000000000000000e+00 0.0000000000000000e+00
5.5344853991671039e+00 0.0000000000000000e+00 0.0000000000000000e+00
5.5345134227032897e+00 0.0000000000000000e+00 0.0000000000000000e+00
5.5345429233279688e+00 0.0000000000000000e+00 0.0000000000000000e+00
5.5345739725879666e+00 0.0000000000000000e+00 0.0000000000000000e+00
5.5346061856054796e+00 0.0000000000000000e+00 0.0000000000000000e+00
5.5346393056960270e+00 0.0000000000000000e+00 0.0000000000000000e+00
5.5346736662892946e+00 0.0000000000000000e+00 0.0000000000000000e+00
5.5347093518706103e+00 0.0000000000000000e+00 0.0000000000000000e+00
5.5347464067148433e+00 0.0000000000000000e+00 0.0000000000000000e+00
5.5347848534320923e+00 0.0000000000000000e+00 0.0000000000000000e+00
5.5348247014035508e+00 0.0000000000000000e+00 0.0000000000000000e+00
5.5348659532665421e+00 0.0000000000000000e+00 0.0000000000000000e+00
5.5349086075991929e+00 0.0000000000000000e+00 0.0000000000000000e+00
5.5349526616443372e+00 0.0000000000000000e+00 0.0000000000000000e+00
5.5349981111092461e+00 0.0000000000000000e+00 0.0000000000000000e+00
5.5350449499901009e+00 0.0000000000000000e+00 0.0000000000000000e+00
5.5350931734380122e+00 0.0000000000000000e+00 0.0000000000000000e+00
5.5351427753096152e+00 0.0000000000000000e+00 0.0000000000000000e+00
5.5351937492502348e+00 0.0000000000000000e+00 0.0000000000000000e+00
5.5352460897793314e+00 0.0000000000000000e+00 0.0000000000000000e+00
5.5352997916607993e+00 0.0000000000000000e+00 0.0000000000000000e+00
5.5353548487748894e+00 0.0000000000000000e+00 0.0000000000000000e+00
5.5354112552458439e+00 0.0000000000000000e+00 0.0000000000000000e+00
5.5354690061297926e+00 0.0000000000000000e+00 0.0000000000000000e+00
5.5355280957785808e+00 0.0000000000000000e+00 0.0000000000000000e+00
5.5355885184024514e+00 0.0000000000000000e+00 0.0000000000000000e+00
5.5356502691681246e+00 0.0000000000000000e+00 0.0000000000000000e+00
5.5357133431759067e+00 0.0000000000000000e+00 0.0000000000000000e+00
5.5357777348517825e+00 0.0000000000000000e+00 0.0000000000000000e+00
5.5358434391018960e+00 0.0000000000000000e+00 0.0000000000000000e+00
5.5359104509746722e+00 0.0000000000000000e+00 0.0000000000000000e+00
5.5359787654936081e+00 0.0000000000000000e+00 0.0000000000000000e+00
5.5360483779244118e+00 0.0000000000000000e+00 0.0000000000000000e+00
5.5361192835444299e+00 0.0000000000000000e+00 0.0000000000000000e+00
5.5361914775914549e+00 0.0000000000000000e+00 0.0000000000000000e+00
5.5362649555052474e+00 0.0000000000000000e+00 0.0000000000000000e+00
5.5363397128976244e+00 0.0000000000000000e+00 0.0000000000000000e+00
5.5364157454902898e+00 0.0000000000000000e+00 0.0000000000000000e+00
5.5364930488453981e+00 0.0000000000000000e+00 0.0000000000000000e+00
5.5365716187057625e+00 0.0000000000000000e+00 0.0000000000000000e+00
5.5366514507407478e+00 0.0000000000000000e+00 0.0000000000000000e+00
5.5367325407131007e+00 0.0000000000000000e+00 0.0000000000000000e+00
5.5368148846080079e+00 0.0000000000000000e+00 0.0000000000000000e+00
5.5368984784133373e+00 0.0000000000000000e+00 0.0000000000000000e+00
5.5369833187673851e+00 0.0000000000000000e+00 0.0000000000000000e+00
5.5370694018149420e+00 0.0000000000000000e+00 0.0000000000000000e+00
5.5371567238272084e+00 0.0000000000000000e+00 0.0000000000000000e+00
5.5372452810247621e+00 0.0000000000000000e+00 0.0000000000000000e+00
5.5373350696045005e+00 0.0000000000000000e+00 0.0000000000000000e+00
5.5374260863515481e+00 0.0000000000000000e+00 0.0000000000000000e+00
5.5375183282337526e+00 0.0000000000000000e+00 0.0000000000000000e+00
5.5376117920733448e+00 0.0000000000000000e+00 0.0000000000000000e+00
5.5377064742323201e+00 0.0000000000000000e+00 0.0000000000000000e+00
5.5378023714662294e+00 0.0000000000000000e+00 0.0000000000000000e+00
5.5378994799390924e+00 0.0000000000000000e+00 0.0000000000000000e+00
5.5379977974883303e+00 0.0000000000000000e+00 0.0000000000000000e+00
5.5380973230618089e+00 0.0000000000000000e+00 0.0000000000000000e+00
5.5381980512175568e+00 0.0000000000000000e+00 0.0000000000000000e+00
5.5382999837401234e+00 0.0000000000000000e+00 0.0000000000000000e+00
5.5384031060563013e+00 0.0000000000000000e+00 0.0000000000000000e+00
5.5385074419284388e+00 0.0000000000000000e+00 0.0000000000000000e+00
5.5386129274994262e+00 0.0000000000000000e+00 0.0000000000000000e+00
5.5387197030859108e+00 0.0000000000000000e+00 0.0000000000000000e+00
5.5388274355627587e+00 0.0000000000000000e+00 0.0000000000000000e+00
5.5389368804438490e+00 0.0000000000000000e+00 0.0000000000000000e+00
5.5390463253249402e+00 0.0000000000000000e+00 0.0000000000000000e+00


SCALARS pressure float
LOOKUP_TABLE default
2.2297564738784246e+01
2.2082139417460787e+01
2.1866714096137333e+01
2.1651212276903230e+01
2.1435595834466959e+01
2.1219828670139748e+01
2.1003879925731216e+01
2.0787722897842659e+01
2.0571341426230500e+01
2.0354746989234382e+01
2.0137951663328302e+01
1.9920953874019933e+01
1.9703751571917522e+01
1.9486341255467252e+01
1.9268713996951636e+01
1.9050868972275477e+01
1.8832808094746536e+01
1.8614552736074614e+01
1.8396124276820107e+01
1.8177510188858573e+01
1.7958698784267199e+01
1.7739689488347366e+01
1.7520481731981633e+01
1.7301073468908161e+01
1.7081466548737360e+01
1.6861673616064369e+01
1.6641700696506316e+01
1.6421547383346390e+01
1.6201214798483569e+01
1.5980703951439118e+01
1.5760019461464088e+01
1.5539165754648991e+01
1.5318143274761654e+01
1.5096950728561598e+01
1.4875586182035471e+01
1.4654052106226532e+01
1.4432352015583062e+01
1.4210488676434666e+01
1.3988464743942808e+01
1.3766282076641851e+01
1.3543944290421027e+01
1.3321454821419085e+01
1.3098814603983731e+01
1.2876025091062374e+01
1.2653088037249733e+01
1.2430005366289786e+01
1.2206779103027801e+01
1.1983411328889181e+01
1.1759904159675965e+01
1.1536259728590954e+01
1.1312480183240188e+01
1.1088567685382168e+01
1.0864524398547676e+01
1.0640352495819251e+01
1.0416054156692180e+01
1.0191631561704931e+01
9.9670868940099808e+00
9.7424223444160596e+00
9.5176401074604602e+00
9.2927423777512193e+00
9.0677313560732635e+00
8.8426092482328436e+00
8.6173782598504278e+00
8.3920405996562888e+00
8.1665984828497002e+00
7.9410541267894637e+00
7.7154097514313520e+00
7.4896675800439274e+00
7.2638298381773057e+00
7.0378987543606941e+00
6.8118765603921174e+00
6.5857654903063274e+00
6.3595677801869721e+00
6.1332856683329240e+00
5.9069213964543108e+00
5.6804772083332908e+00
5.4539553506747520e+00
5.2273580724326374e+00
5.0006876240726053e+00
4.7739462581647558e+00
4.5471362267569475e+00
4.3202597857085561e+00
4.0933191927571926e+00
3.8663167079586316e+00
3.6392545937056338e+00
3.4121351119717014e+00
3.1849605246791000e+00
2.9577330957206729e+00
2.7304550933203009e+00
2.5031287863323919e+00
2.2757564474875540e+00
2.0483403435719265e+00
1.8208827366626015e+00
1.5933859065490754e+00
1.3658521108878319e+00
1.1382836635973030e+00
9.1068275170690072e-01
6.8305184923706030e-01
4.5539277392334876e-01
2.2770883844232384e-01
0.0000000000000000e+00


SCALARS diameter float
LOOKUP_TABLE default
1.0020190007923893e+00
1.0019962116376886e+00
1.0019744937110693e+00
1.0019548963139862e+00
1.0019363683255409e+00
1.0019178049499202e+00
1.0018986975469597e+00
1.0018785114639295e+00
1.0018582861616272e+00
1.0018390850279337e+00
1.0018201004559089e+00
1.0018010769545351e+00
1.0017819125783221e+00
1.0017620869195194e+00
1.0017415550144753e+00
1.0017208147875378e+00
1.0017002858797126e+00
1.0016818468294977e+00
1.0016633172033491e+00
1.0016440699128528e+00
1.0016245913144561e+00
1.0016049524419994e+00
1.0015847466861376e+00
1.0015640197286728e+00
1.0015433318609350e+00
1.0015234310571819e+00
1.0015035150710472e+00
1.0014835477012316e+00
1.0014635692283198e+00
1.0014436097495267e+00
1.0014240109175767e+00
1.0014043891001132e+00
1.0013847042781814e+00
1.0013646541320560e+00
1.0013444589740390e+00
1.0013242510442339e+00
1.0013040289844606e+00
1.0012837922311983e+00
1.0012635409985342e+00
1.0012432883845344e+00
1.0012232265855960e+00
1.0012031482440167e+00
1.0011830536293913e+00
1.0011629436482115e+00
1.0011428186600129e+00
1.0011226790950976e+00
1.0011025254401722e+00
1.0010823578007217e+00
1.0010621765674068e+00
1.0010419815042475e+00
1.0010217734758020e+00
1.0010015523581592e+00
1.0009813184586966e+00
1.0009610723390814e+00
1.0009408140673275e+00
1.0009205437668791e+00
1.0009002617188072e+00
1.0008799684468832e+00
1.0008596638801293e+00
1.0008393483240106e+00
1.0008190222035824e+00
1.0007986856437106e+00
1.0007783386928770e+00
1.0007579818237258e+00
1.0007376153043444e+00
1.0007172393090664e+00
1.0006968541356802e+00
1.0006764599907492e+00
1.0006560571044385e+00
1.0006356457557333e+00
1.0006152261932793e+00
1.0005947986102939e+00
1.0005743632269302e+00
1.0005539202940221e+00
1.0005334701124065e+00
1.0005130128827535e+00
1.0004925489752705e+00
1.0004720785202219e+00
1.0004516018544825e+00
1.0004311190447632e+00
1.0004106303233473e+00
1.0003901360395440e+00
1.0003696363869421e+00
1.0003491317530000e+00
1.0003286222689365e+00
1.0003081080227896e+00
1.0002875892975511e+00
1.0002670664336684e+00
1.0002465397730051e+00
1.0002260095130693e+00
1.0002054760634853e+00
1.0001849386501103e+00
1.0001643984706172e+00
1.0001438552899773e+00
1.0001233099404265e+00
1.0001027623210239e+00
1.0000822127741349e+00
1.0000616615052469e+00
1.0000411088591090e+00
1.0000205549575496e+00
9.9999999905047654e-01


SCALARS iters float
LOOKUP_TABLE default
4.0000000000000000e+00
4.0000000000000000e+00
4.0000000000000000e+00
4.0000000000000000e+00
4.0000000000000000e+00
4.0000000000000000e+00
4.0000000000000000e+00
4.0000000000000000e+00
4.0000000000000000e+00
4.0000000000000000e+00
4.0000000000000000e+00
4.0000000000000000e+00
4.0000000000000000e+00
4.0000000000000000e+00
4.0000000000000000e+00
4.0000000000000000e+00
4.0000000000000000e+00
4.0000000000000000e+00
4.0000000000000000e+00
4.0000000000000000e+00
4.0000000000000000e+00
4.0000000000000000e+00
4.0000000000000000e+00
4.0000000000000000e+00
4.0000000000000000e+00
4.0000000000000000e+00
4.0000000000000000e+00
4.0000000000000000e+00
4.0000000000000000e+00
4.0000000000000000e+00
4.0000000000000000e+00
4.0000000000000000e+00
4.0000000000000000e+00
4.0000000000000000e+00
4.0000000000000000e+00
4.0000000000000000e+00
4.0000000000000000e+00
4.0000000000000000e+00
4.0000000000000000e+00
4.0000000000000000e+00
4.0000000000000000e+00
4.0000000000000000e+00
4.0000000000000000e+00
4.0000000000000000e+00
4.0000000000000000e+00
4.0000000000000000e+00
4.0000000000000000e+00
4.0000000000000000e+00
4.0000000000000000e+00
4.0000000000000000e+00
4.0000000000000000e+00
4.0000000000000000e+00
4.0000000000000000e+00
4.0000000000000000e+00
4.0000000000000000e+00
4.0000000000000000e+00
4.0000000000000000e+00
4.0000000000000000e+00
4.0000000000000000e+00
4.0000000000000000e+00
4.0000000000000000e+00
4.0000000000000000e+00
4.0000000000000000e+00
4.0000000000000000e+00
4.0000000000000000e+00
4.0000000000000000e+00
4.0000000000000000e+00
4.0000000000000000e+00
4.0000000000000000e+00
4.0000000000000000e+00
4.0000000000000000e+00
4.0000000000000000e+00
4.0000000000000000e+00
4.0000000000000000e+00
4.0000000000000000e+00
4.0000000000000000e+00
4.0000000000000000e+00
4.0000000000000000e+00
4.0000000000000000e+00
4.0000000000000000e+00
4.0000000000000000e+00
4.0000000000000000e+00
4.0000000000000000e+00
4.0000000000000000e+00
4.0000000000000000e+00
4.0000000000000000e+00
4.0000000000000000e+00
4.0000000000000000e+00
4.0000000000000000e+00
4.0000000000000000e+00
4.0000000000000000e+00
4.0000000000000000e+00
4.0000000000000000e+00
4.0000000000000000e+00
4.0000000000000000e+00
4.0000000000000000e+00
4.0000000000000000e+00
4.0000000000000000e+00
4.0000000000000000e+00
4.0000000000000000e+00
4.0000000000000000e+00


