# vtk DataFile Version 2.0

ASCII

DATASET UNSTRUCTURED_GRID

POINTS 101 float

0.0000000000000000e+00 0.0000000000000000e+00 0.0000000000000000e+00
1.0000000000000001e-01 0.0000000000000000e+00 0.0000000000000000e+00
2.0000000000000001e-01 0.0000000000000000e+00 0.0000000000000000e+00
3.0000000000000004e-01 0.0000000000000000e+00 0.0000000000000000e+00
4.0000000000000002e-01 0.0000000000000000e+00 0.0000000000000000e+00
5.0000000000000000e-01 0.0000000000000000e+00 0.0000000000000000e+00
6.0000000000000009e-01 0.0000000000000000e+00 0.0000000000000000e+00
7.0000000000000007e-01 0.0000000000000000e+00 0.0000000000000000e+00
8.0000000000000004e-01 0.0000000000000000e+00 0.0000000000000000e+00
9.0000000000000002e-01 0.0000000000000000e+00 0.0000000000000000e+00
1.0000000000000000e+00 0.0000000000000000e+00 0.0000000000000000e+00
1.1000000000000001e+00 0.0000000000000000e+00 0.0000000000000000e+00
1.2000000000000002e+00 0.0000000000000000e+00 0.0000000000000000e+00
1.3000000000000000e+00 0.0000000000000000e+00 0.0000000000000000e+00
1.4000000000000001e+00 0.0000000000000000e+00 0.0000000000000000e+00
1.5000000000000000e+00 0.0000000000000000e+00 0.0000000000000000e+00
1.6000000000000001e+00 0.0000000000000000e+00 0.0000000000000000e+00
1.7000000000000002e+00 0.0000000000000000e+00 0.0000000000000000e+00
1.8000000000000000e+00 0.0000000000000000e+00 0.0000000000000000e+00
1.9000000000000001e+00 0.0000000000000000e+00 0.0000000000000000e+00
2.0000000000000000e+00 0.0000000000000000e+00 0.0000000000000000e+00
2.1000000000000001e+00 0.0000000000000000e+00 0.0000000000000000e+00
2.2000000000000002e+00 0.0000000000000000e+00 0.0000000000000000e+00
2.3000000000000003e+00 0.0000000000000000e+00 0.0000000000000000e+00
2.4000000000000004e+00 0.0000000000000000e+00 0.0000000000000000e+00
2.5000000000000000e+00 0.0000000000000000e+00 0.0000000000000000e+00
2.6000000000000001e+00 0.0000000000000000e+00 0.0000000000000000e+00
2.7000000000000002e+00 0.0000000000000000e+00 0.0000000000000000e+00
2.8000000000000003e+00 0.0000000000000000e+00 0.0000000000000000e+00
2.9000000000000004e+00 0.0000000000000000e+00 0.0000000000000000e+00
3.0000000000000000e+00 0.0000000000000000e+00 0.0000000000000000e+00
3.1000000000000001e+00 0.0000000000000000e+00 0.0000000000000000e+00
3.2000000000000002e+00 0.0000000000000000e+00 0.0000000000000000e+00
3.3000000000000003e+00 0.0000000000000000e+00 0.0000000000000000e+00
3.4000000000000004e+00 0.0000000000000000e+00 0.0000000000000000e+00
3.5000000000000000e+00 0.0000000000000000e+00 0.0000000000000000e+00
3.6000000000000001e+00 0.0000000000000000e+00 0.0000000000000000e+00
3.7000000000000002e+00 0.0000000000000000e+00 0.0000000000000000e+00
3.8000000000000003e+00 0.0000000000000000e+00 0.0000000000000000e+00
3.9000000000000004e+00 0.0000000000000000e+00 0.0000000000000000e+00
4.0000000000000000e+00 0.0000000000000000e+00 0.0000000000000000e+00
4.1000000000000005e+00 0.0000000000000000e+00 0.0000000000000000e+00
4.2000000000000002e+00 0.0000000000000000e+00 0.0000000000000000e+00
4.2999999999999998e+00 0.0000000000000000e+00 0.0000000000000000e+00
4.4000000000000004e+00 0.0000000000000000e+00 0.0000000000000000e+00
4.5000000000000000e+00 0.0000000000000000e+00 0.0000000000000000e+00
4.6000000000000005e+00 0.0000000000000000e+00 0.0000000000000000e+00
4.7000000000000002e+00 0.0000000000000000e+00 0.0000000000000000e+00
4.8000000000000007e+00 0.0000000000000000e+00 0.0000000000000000e+00
4.9000000000000004e+00 0.0000000000000000e+00 0.0000000000000000e+00
5.0000000000000000e+00 0.0000000000000000e+00 0.0000000000000000e+00
5.1000000000000005e+00 0.0000000000000000e+00 0.0000000000000000e+00
5.2000000000000002e+00 0.0000000000000000e+00 0.0000000000000000e+00
5.3000000000000007e+00 0.0000000000000000e+00 0.0000000000000000e+00
5.4000000000000004e+00 0.0000000000000000e+00 0.0000000000000000e+00
5.5000000000000000e+00 0.0000000000000000e+00 0.0000000000000000e+00
5.6000000000000005e+00 0.0000000000000000e+00 0.0000000000000000e+00
5.7000000000000002e+00 0.0000000000000000e+00 0.0000000000000000e+00
5.8000000000000007e+00 0.0000000000000000e+00 0.0000000000000000e+00
5.9000000000000004e+00 0.0000000000000000e+00 0.0000000000000000e+00
6.0000000000000000e+00 0.0000000000000000e+00 0.0000000000000000e+00
6.1000000000000005e+00 0.0000000000000000e+00 0.0000000000000000e+00
6.2000000000000002e+00 0.0000000000000000e+00 0.0000000000000000e+00
6.3000000000000007e+00 0.0000000000000000e+00 0.0000000000000000e+00
6.4000000000000004e+00 0.0000000000000000e+00 0.0000000000000000e+00
6.5000000000000000e+00 0.0000000000000000e+00 0.0000000000000000e+00
6.6000000000000005e+00 0.0000000000000000e+00 0.0000000000000000e+00
6.7000000000000002e+00 0.0000000000000000e+00 0.0000000000000000e+00
6.8000000000000007e+00 0.0000000000000000e+00 0.0000000000000000e+00
6.9000000000000004e+00 0.0000000000000000e+00 0.0000000000000000e+00
7.0000000000000000e+00 0.0000000000000000e+00 0.0000000000000000e+00
7.1000000000000005e+00 0.0000000000000000e+00 0.0000000000000000e+00
7.2000000000000002e+00 0.0000000000000000e+00 0.0000000000000000e+00
7.3000000000000007e+00 0.0000000000000000e+00 0.0000000000000000e+00
7.4000000000000004e+00 0.0000000000000000e+00 0.0000000000000000e+00
7.5000000000000000e+00 0.0000000000000000e+00 0.0000000000000000e+00
7.6000000000000005e+00 0.0000000000000000e+00 0.0000000000000000e+00
7.7000000000000002e+00 0.0000000000000000e+00 0.0000000000000000e+00
7.8000000000000007e+00 0.0000000000000000e+00 0.0000000000000000e+00
7.9000000000000004e+00 0.0000000000000000e+00 0.0000000000000000e+00
8.0000000000000000e+00 0.0000000000000000e+00 0.0000000000000000e+00
8.0999999999999996e+00 0.0000000000000000e+00 0.0000000000000000e+00
8.2000000000000011e+00 0.0000000000000000e+00 0.0000000000000000e+00
8.3000000000000007e+00 0.0000000000000000e+00 0.0000000000000000e+00
8.4000000000000004e+00 0.0000000000000000e+00 0.0000000000000000e+00
8.5000000000000000e+00 0.0000000000000000e+00 0.0000000000000000e+00
8.5999999999999996e+00 0.0000000000000000e+00 0.0000000000000000e+00
8.7000000000000011e+00 0.0000000000000000e+00 0.0000000000000000e+00
8.8000000000000007e+00 0.0000000000000000e+00 0.0000000000000000e+00
8.9000000000000004e+00 0.0000000000000000e+00 0.0000000000000000e+00
9.0000000000000000e+00 0.0000000000000000e+00 0.0000000000000000e+00
9.0999999999999996e+00 0.0000000000000000e+00 0.0000000000000000e+00
9.2000000000000011e+00 0.0000000000000000e+00 0.0000000000000000e+00
9.3000000000000007e+00 0.0000000000000000e+00 0.0000000000000000e+00
9.4000000000000004e+00 0.0000000000000000e+00 0.0000000000000000e+00
9.5000000000000000e+00 0.0000000000000000e+00 0.0000000000000000e+00
9.6000000000000014e+00 0.0000000000000000e+00 0.0000000000000000e+00
9.7000000000000011e+00 0.0000000000000000e+00 0.0000000000000000e+00
9.8000000000000007e+00 0.0000000000000000e+00 0.0000000000000000e+00
9.9000000000000004e+00 0.0000000000000000e+00 0.0000000000000000e+00
1.0000000000000000e+01 0.0000000000000000e+00 0.0000000000000000e+00

POINT_DATA 101

VECTORS velocity float
4.8276264717557984e+00 0.0000000000000000e+00 0.0000000000000000e+00
4.8268575729274037e+00 0.0000000000000000e+00 0.0000000000000000e+00
4.8261080515984878e+00 0.0000000000000000e+00 0.0000000000000000e+00
4.8253709151206996e+00 0.0000000000000000e+00 0.0000000000000000e+00
4.8246434620976357e+00 0.0000000000000000e+00 0.0000000000000000e+00
4.8239254066852322e+00 0.0000000000000000e+00 0.0000000000000000e+00
4.8232181914518248e+00 0.0000000000000000e+00 0.0000000000000000e+00
4.8225220330674503e+00 0.0000000000000000e+00 0.0000000000000000e+00
4.8218327609819500e+00 0.0000000000000000e+00 0.0000000000000000e+00
4.8211470925750701e+00 0.0000000000000000e+00 0.0000000000000000e+00
4.8204664970386872e+00 0.0000000000000000e+00 0.0000000000000000e+00
4.8197922240335114e+00 0.0000000000000000e+00 0.0000000000000000e+00
4.8191250580112674e+00 0.0000000000000000e+00 0.0000000000000000e+00
4.8184668454813693e+00 0.0000000000000000e+00 0.0000000000000000e+00
4.8178182194831738e+00 0.0000000000000000e+00 0.0000000000000000e+00
4.8171786740885265e+00 0.0000000000000000e+00 0.0000000000000000e+00
4.8165457860389420e+00 0.0000000000000000e+00 0.0000000000000000e+00
4.8159175802982466e+00 0.0000000000000000e+00 0.0000000000000000e+00
4.8152955060608758e+00 0.0000000000000000e+00 0.0000000000000000e+00
4.8146803200545731e+00 0.0000000000000000e+00 0.0000000000000000e+00
4.8140721207023986e+00 0.0000000000000000e+00 0.0000000000000000e+00
4.8134716895130731e+00 0.0000000000000000e+00 0.0000000000000000e+00
4.8128797588721017e+00 0.0000000000000000e+00 0.0000000000000000e+00
4.8122967481830745e+00 0.0000000000000000e+00 0.0000000000000000e+00
4.8117216726369634e+00 0.0000000000000000e+00 0.0000000000000000e+00
4.8111528578753342e+00 0.0000000000000000e+00 0.0000000000000000e+00
4.8105910299507944e+00 0.0000000000000000e+00 0.0000000000000000e+00
4.8100364183086954e+00 0.0000000000000000e+00 0.0000000000000000e+00
4.8094892322594980e+00 0.0000000000000000e+00 0.0000000000000000e+00
4.8089490059098106e+00 0.0000000000000000e+00 0.0000000000000000e+00
4.8084154595687068e+00 0.0000000000000000e+00 0.0000000000000000e+00
4.8078889813691674e+00 0.0000000000000000e+00 0.0000000000000000e+00
4.8073701834214413e+00 0.0000000000000000e+00 0.0000000000000000e+00
4.8068597103525912e+00 0.0000000000000000e+00 0.0000000000000000e+00
4.8063572971171657e+00 0.0000000000000000e+00 0.0000000000000000e+00
4.8058626424524551e+00 0.0000000000000000e+00 0.0000000000000000e+00
4.8053756660736591e+00 0.0000000000000000e+00 0.0000000000000000e+00
4.8048962373696877e+00 0.0000000000000000e+00 0.0000000000000000e+00
4.8044245297087675e+00 0.0000000000000000e+00 0.0000000000000000e+00
4.8039598887843278e+00 0.0000000000000000e+00 0.0000000000000000e+00
4.8035017543944756e+00 0.0000000000000000e+00 0.0000000000000000e+00
4.8030507419528838e+00 0.0000000000000000e+00 0.0000000000000000e+00
4.8026070341986591e+00 0.0000000000000000e+00 0.0000000000000000e+00
4.8021707271754845e+00 0.0000000000000000e+00 0.0000000000000000e+00
4.8017418730512409e+00 0.0000000000000000e+00 0.0000000000000000e+00
4.8013205016505740e+00 0.0000000000000000e+00 0.0000000000000000e+00
4.8009066314151019e+00 0.0000000000000000e+00 0.0000000000000000e+00
4.8005002747216210e+00 0.0000000000000000e+00 0.0000000000000000e+00
4.8001014415843564e+00 0.0000000000000000e+00 0.0000000000000000e+00
4.7997101403846871e+00 0.0000000000000000e+00 0.0000000000000000e+00
4.7993263780634789e+00 0.0000000000000000e+00 0.0000000000000000e+00
4.7989501617217432e+00 0.0000000000000000e+00 0.0000000000000000e+00
4.7985814978710870e+00 0.0000000000000000e+00 0.0000000000000000e+00
4.7982203926083971e+00 0.0000000000000000e+00 0.0000000000000000e+00
4.7978668522839536e+00 0.0000000000000000e+00 0.0000000000000000e+00
4.7975208831957916e+00 0.0000000000000000e+00 0.0000000000000000e+00
4.7971824907441833e+00 0.0000000000000000e+00 0.0000000000000000e+00
4.7968516806217689e+00 0.0000000000000000e+00 0.0000000000000000e+00
4.7965284591417090e+00 0.0000000000000000e+00 0.0000000000000000e+00
4.7962128318350388e+00 0.0000000000000000e+00 0.0000000000000000e+00
4.7959048039754171e+00 0.0000000000000000e+00 0.0000000000000000e+00
4.7956043810251643e+00 0.0000000000000000e+00 0.0000000000000000e+00
4.7953115682663778e+00 0.0000000000000000e+00 0.0000000000000000e+00
4.7950263705172231e+00 0.0000000000000000e+00 0.0000000000000000e+00
4.7947487927142687e+00 0.0000000000000000e+00 0.0000000000000000e+00
4.7944788397547216e+00 0.0000000000000000e+00 0.0000000000000000e+00
4.7942165163082953e+00 0.0000000000000000e+00 0.0000000000000000e+00
4.7939618270969850e+00 0.0000000000000000e+00 0.0000000000000000e+00
4.7937147766829806e+00 0.0000000000000000e+00 0.0000000000000000e+00
4.7934753693905314e+00 0.0000000000000000e+00 0.0000000000000000e+00
4.7932436094520225e+00 0.0000000000000000e+00 0.0000000000000000e+00
4.7930195010161531e+00 0.0000000000000000e+00 0.0000000000000000e+00
4.7928030480882944e+00 0.0000000000000000e+00 0.0000000000000000e+00
4.7925942545968701e+00 0.0000000000000000e+00 0.0000000000000000e+00
4.7923931243400482e+00 0.0000000000000000e+00 0.0000000000000000e+00
4.7921996608835746e+00 0.0000000000000000e+00 0.0000000000000000e+00
4.7920138679574240e+00 0.0000000000000000e+00 0.0000000000000000e+00
4.7918357487553385e+00 0.0000000000000000e+00 0.0000000000000000e+00
4.7916653067600610e+00 0.0000000000000000e+00 0.0000000000000000e+00
4.7915025454610252e+00 0.0000000000000000e+00 0.0000000000000000e+00
4.7913474676372472e+00 0.0000000000000000e+00 0.0000000000000000e+00
4.7912000761582636e+00 0.0000000000000000e+00 0.0000000000000000e+00
4.7910603738009740e+00 0.0000000000000000e+00 0.0000000000000000e+00
4.7909283638949862e+00 0.0000000000000000e+00 0.0000000000000000e+00
4.7908040487308865e+00 0.0000000000000000e+00 0.0000000000000000e+00
4.7906874299960549e+00 0.0000000000000000e+00 0.0000000000000000e+00
4.7905785100921126e+00 0.0000000000000000e+00 0.0000000000000000e+00
4.7904772915929259e+00 0.0000000000000000e+00 0.0000000000000000e+00
4.7903837769740294e+00 0.0000000000000000e+00 0.0000000000000000e+00
4.7902979683549622e+00 0.0000000000000000e+00 0.0000000000000000e+00
4.7902198676940992e+00 0.0000000000000000e+00 0.0000000000000000e+00
4.7901494779466471e+00 0.0000000000000000e+00 0.0000000000000000e+00
4.7900867953327211e+00 0.0000000000000000e+00 0.0000000000000000e+00
4.7900318360198391e+00 0.0000000000000000e+00 0.0000000000000000e+00
4.7899845648888739e+00 0.0000000000000000e+00 0.0000000000000000e+00
4.7899450755475588e+00 0.0000000000000000e+00 0.0000000000000000e+00
4.7899131297632263e+00 0.0000000000000000e+00 0.0000000000000000e+00
4.7898893487510898e+00 0.0000000000000000e+00 0.0000000000000000e+00
4.7898721286571799e+00 0.0000000000000000e+00 0.0000000000000000e+00
4.7898656178796006e+00 0.0000000000000000e+00 0.0000000000000000e+00
4.7898591071020205e+00 0.0000000000000000e+00 0.0000000000000000e+00


SCALARS pressure float
LOOKUP_TABLE default
3.0714546323339302e+00
3.0373416660462236e+00
3.0032286997585169e+00
2.9691750689117793e+00
2.9352225270109416e+00
2.9013897624596283e+00
2.8676805970427908e+00
2.8340892162873503e+00
2.8006122424641489e+00
2.7672628696971171e+00
2.7340539244434465e+00
2.7009791624692396e+00
2.6680303245503971e+00
2.6352009599050272e+00
2.6024814207489055e+00
2.5698664773865922e+00
2.5373559109416726e+00
2.5049583519423591e+00
2.4726811821708812e+00
2.4405175627747004e+00
2.4084618500441071e+00
2.3765113373205420e+00
2.3446609667357472e+00
2.3129052764226943e+00
2.2812396707207023e+00
2.2496662220167258e+00
2.2181906184321485e+00
2.1868087309767534e+00
2.1555171191452875e+00
2.1243126265092753e+00
2.0931948773414706e+00
2.0621633560203141e+00
2.0312148209713508e+00
2.0003447796155767e+00
1.9695483126988718e+00
1.9388240207951204e+00
1.9081712027371343e+00
1.8775883514461875e+00
1.8470740440226501e+00
1.8166255921838741e+00
1.7862435789538524e+00
1.7559287630160427e+00
1.7256770563790091e+00
1.6954853170530939e+00
1.6653508785126954e+00
1.6352713119740436e+00
1.6052443069548479e+00
1.5752676100735867e+00
1.5453389966403659e+00
1.5154562520210735e+00
1.4856171663189932e+00
1.4558195328453243e+00
1.4260611414898412e+00
1.3963397809870493e+00
1.3666532387601693e+00
1.3369992982870373e+00
1.3073757397534973e+00
1.2777803438810149e+00
1.2482108876316564e+00
1.2186651423691550e+00
1.1891408792754528e+00
1.1596358681779637e+00
1.1301478756210712e+00
1.1006746663190947e+00
1.0712140044376883e+00
1.0417636514803685e+00
1.0123213666427744e+00
9.8288490770853609e-01
9.5345203009066870e-01
9.2402048762241373e-01
8.9458803305775991e-01
8.6515241764177442e-01
8.3571139109326709e-01
8.0626270200592420e-01
7.7680409776508519e-01
7.4733332475082248e-01
7.1784812895154182e-01
6.8834625423057128e-01
6.5882544519906960e-01
6.2928344413288007e-01
5.9971799242326873e-01
5.7012683317144652e-01
5.4050770841120721e-01
5.1085835974549754e-01
4.8117652585372744e-01
4.5145994854474625e-01
4.2170637143708317e-01
3.9191353544201241e-01
3.6207917868476769e-01
3.3220104052728339e-01
3.0227686138469173e-01
2.7230438282304664e-01
2.4228134084527436e-01
2.1220549973807554e-01
1.8207454326657879e-01
1.5188636154230667e-01
1.2163832796658766e-01
9.1329149117437503e-02
6.0954086051227187e-02
3.0517302675811608e-02
0.0000000000000000e+00


SCALARS diameter float
LOOKUP_TABLE default
1.0002792705596992e+00
1.0002758861195673e+00
1.0002720781263361e+00
1.0002691407642463e+00
1.0002664712195972e+00
1.0002637871259326e+00
1.0002602625073591e+00
1.0002556673055636e+00
1.0002512323029027e+00
1.0002484687345163e+00
1.0002461965180842e+00
1.0002439122316995e+00
1.0002415898731898e+00
1.0002388111199587e+00
1.0002352102447520e+00
1.0002313732974091e+00
1.0002276386108435e+00
1.0002251441630194e+00
1.0002228016808266e+00
1.0002203520963255e+00
1.0002178824098471e+00
1.0002153027701912e+00
1.0002122881660127e+00
1.0002089844305315e+00
1.0002055394765119e+00
1.0002027020577526e+00
1.0001999044131200e+00
1.0001970588942666e+00
1.0001942125623202e+00
1.0001913920174286e+00
1.0001888941008825e+00
1.0001863859804407e+00
1.0001838356353907e+00
1.0001809405641238e+00
1.0001779176028494e+00
1.0001748914413544e+00
1.0001718616211213e+00
1.0001688281815870e+00
1.0001657909195074e+00
1.0001627785907343e+00
1.0001602114510466e+00
1.0001576373676857e+00
1.0001550575371956e+00
1.0001524725822457e+00
1.0001498827569324e+00
1.0001472882759905e+00
1.0001446893027022e+00
1.0001420860265253e+00
1.0001394785360747e+00
1.0001368666684829e+00
1.0001342508336646e+00
1.0001316309735064e+00
1.0001290071569222e+00
1.0001263796156281e+00
1.0001237483451522e+00
1.0001211133280385e+00
1.0001184747651726e+00
1.0001158329498787e+00
1.0001131875748697e+00
1.0001105387889291e+00
1.0001078867762647e+00
1.0001052315662868e+00
1.0001025731620357e+00
1.0000999117605904e+00
1.0000972474729999e+00
1.0000945803002632e+00
1.0000919103768215e+00
1.0000892377370891e+00
1.0000865624284736e+00
1.0000838845586295e+00
1.0000812042167433e+00
1.0000785214633843e+00
1.0000758363822457e+00
1.0000731490411747e+00
1.0000704595145882e+00
1.0000677678902818e+00
1.0000650742483583e+00
1.0000623786039646e+00
1.0000596811817315e+00
1.0000569817341565e+00
1.0000542805562493e+00
1.0000515777447201e+00
1.0000488733444752e+00
1.0000461673406904e+00
1.0000434596413916e+00
1.0000407508807942e+00
1.0000380409108711e+00
1.0000353297800741e+00
1.0000326173861367e+00
1.0000299038154838e+00
1.0000271891423704e+00
1.0000244731602606e+00
1.0000217567971070e+00
1.0000190390501582e+00
1.0000163207632586e+00
1.0000136018408641e+00
1.0000108823269771e+00
1.0000081623008032e+00
1.0000054418032664e+00
1.0000027210062252e+00
1.0000000000450926e+00


SCALARS iters float
LOOKUP_TABLE default
4.0000000000000000e+00
4.0000000000000000e+00
4.0000000000000000e+00
4.0000000000000000e+00
4.0000000000000000e+00
4.0000000000000000e+00
4.0000000000000000e+00
4.0000000000000000e+00
4.0000000000000000e+00
4.0000000000000000e+00
4.0000000000000000e+00
4.0000000000000000e+00
4.0000000000000000e+00
4.0000000000000000e+00
4.0000000000000000e+00
4.0000000000000000e+00
4.0000000000000000e+00
4.0000000000000000e+00
4.0000000000000000e+00
4.0000000000000000e+00
4.0000000000000000e+00
4.0000000000000000e+00
4.0000000000000000e+00
4.0000000000000000e+00
4.0000000000000000e+00
4.0000000000000000e+00
4.0000000000000000e+00
4.0000000000000000e+00
4.0000000000000000e+00
4.0000000000000000e+00
4.0000000000000000e+00
4.0000000000000000e+00
4.0000000000000000e+00
4.0000000000000000e+00
4.0000000000000000e+00
4.0000000000000000e+00
4.0000000000000000e+00
4.0000000000000000e+00
4.0000000000000000e+00
4.0000000000000000e+00
4.0000000000000000e+00
4.0000000000000000e+00
4.0000000000000000e+00
4.0000000000000000e+00
4.0000000000000000e+00
4.0000000000000000e+00
4.0000000000000000e+00
4.0000000000000000e+00
4.0000000000000000e+00
4.0000000000000000e+00
4.0000000000000000e+00
4.0000000000000000e+00
4.0000000000000000e+00
4.0000000000000000e+00
4.0000000000000000e+00
4.0000000000000000e+00
4.0000000000000000e+00
4.0000000000000000e+00
4.0000000000000000e+00
4.0000000000000000e+00
4.0000000000000000e+00
4.0000000000000000e+00
4.0000000000000000e+00
4.0000000000000000e+00
4.0000000000000000e+00
4.0000000000000000e+00
4.0000000000000000e+00
4.0000000000000000e+00
4.0000000000000000e+00
4.0000000000000000e+00
4.0000000000000000e+00
4.0000000000000000e+00
4.0000000000000000e+00
4.0000000000000000e+00
4.0000000000000000e+00
4.0000000000000000e+00
4.0000000000000000e+00
4.0000000000000000e+00
4.0000000000000000e+00
4.0000000000000000e+00
4.0000000000000000e+00
4.0000000000000000e+00
4.0000000000000000e+00
4.0000000000000000e+00
4.0000000000000000e+00
4.0000000000000000e+00
4.0000000000000000e+00
4.0000000000000000e+00
4.0000000000000000e+00
4.0000000000000000e+00
4.0000000000000000e+00
4.0000000000000000e+00
4.0000000000000000e+00
4.0000000000000000e+00
4.0000000000000000e+00
4.0000000000000000e+00
4.0000000000000000e+00
4.0000000000000000e+00
4.0000000000000000e+00
4.0000000000000000e+00
4.0000000000000000e+00


