# vtk DataFile Version 2.0

ASCII

DATASET UNSTRUCTURED_GRID

POINTS 101 float

0.0000000000000000e+00 0.0000000000000000e+00 0.0000000000000000e+00
1.0000000000000001e-01 0.0000000000000000e+00 0.0000000000000000e+00
2.0000000000000001e-01 0.0000000000000000e+00 0.0000000000000000e+00
3.0000000000000004e-01 0.0000000000000000e+00 0.0000000000000000e+00
4.0000000000000002e-01 0.0000000000000000e+00 0.0000000000000000e+00
5.0000000000000000e-01 0.0000000000000000e+00 0.0000000000000000e+00
6.0000000000000009e-01 0.0000000000000000e+00 0.0000000000000000e+00
7.0000000000000007e-01 0.0000000000000000e+00 0.0000000000000000e+00
8.0000000000000004e-01 0.0000000000000000e+00 0.0000000000000000e+00
9.0000000000000002e-01 0.0000000000000000e+00 0.0000000000000000e+00
1.0000000000000000e+00 0.0000000000000000e+00 0.0000000000000000e+00
1.1000000000000001e+00 0.0000000000000000e+00 0.0000000000000000e+00
1.2000000000000002e+00 0.0000000000000000e+00 0.0000000000000000e+00
1.3000000000000000e+00 0.0000000000000000e+00 0.0000000000000000e+00
1.4000000000000001e+00 0.0000000000000000e+00 0.0000000000000000e+00
1.5000000000000000e+00 0.0000000000000000e+00 0.0000000000000000e+00
1.6000000000000001e+00 0.0000000000000000e+00 0.0000000000000000e+00
1.7000000000000002e+00 0.0000000000000000e+00 0.0000000000000000e+00
1.8000000000000000e+00 0.0000000000000000e+00 0.0000000000000000e+00
1.9000000000000001e+00 0.0000000000000000e+00 0.0000000000000000e+00
2.0000000000000000e+00 0.0000000000000000e+00 0.0000000000000000e+00
2.1000000000000001e+00 0.0000000000000000e+00 0.0000000000000000e+00
2.2000000000000002e+00 0.0000000000000000e+00 0.0000000000000000e+00
2.3000000000000003e+00 0.0000000000000000e+00 0.0000000000000000e+00
2.4000000000000004e+00 0.0000000000000000e+00 0.0000000000000000e+00
2.5000000000000000e+00 0.0000000000000000e+00 0.0000000000000000e+00
2.6000000000000001e+00 0.0000000000000000e+00 0.0000000000000000e+00
2.7000000000000002e+00 0.0000000000000000e+00 0.0000000000000000e+00
2.8000000000000003e+00 0.0000000000000000e+00 0.0000000000000000e+00
2.9000000000000004e+00 0.0000000000000000e+00 0.0000000000000000e+00
3.0000000000000000e+00 0.0000000000000000e+00 0.0000000000000000e+00
3.1000000000000001e+00 0.0000000000000000e+00 0.0000000000000000e+00
3.2000000000000002e+00 0.0000000000000000e+00 0.0000000000000000e+00
3.3000000000000003e+00 0.0000000000000000e+00 0.0000000000000000e+00
3.4000000000000004e+00 0.0000000000000000e+00 0.0000000000000000e+00
3.5000000000000000e+00 0.0000000000000000e+00 0.0000000000000000e+00
3.6000000000000001e+00 0.0000000000000000e+00 0.0000000000000000e+00
3.7000000000000002e+00 0.0000000000000000e+00 0.0000000000000000e+00
3.8000000000000003e+00 0.0000000000000000e+00 0.0000000000000000e+00
3.9000000000000004e+00 0.0000000000000000e+00 0.0000000000000000e+00
4.0000000000000000e+00 0.0000000000000000e+00 0.0000000000000000e+00
4.1000000000000005e+00 0.0000000000000000e+00 0.0000000000000000e+00
4.2000000000000002e+00 0.0000000000000000e+00 0.0000000000000000e+00
4.2999999999999998e+00 0.0000000000000000e+00 0.0000000000000000e+00
4.4000000000000004e+00 0.0000000000000000e+00 0.0000000000000000e+00
4.5000000000000000e+00 0.0000000000000000e+00 0.0000000000000000e+00
4.6000000000000005e+00 0.0000000000000000e+00 0.0000000000000000e+00
4.7000000000000002e+00 0.0000000000000000e+00 0.0000000000000000e+00
4.8000000000000007e+00 0.0000000000000000e+00 0.0000000000000000e+00
4.9000000000000004e+00 0.0000000000000000e+00 0.0000000000000000e+00
5.0000000000000000e+00 0.0000000000000000e+00 0.0000000000000000e+00
5.1000000000000005e+00 0.0000000000000000e+00 0.0000000000000000e+00
5.2000000000000002e+00 0.0000000000000000e+00 0.0000000000000000e+00
5.3000000000000007e+00 0.0000000000000000e+00 0.0000000000000000e+00
5.4000000000000004e+00 0.0000000000000000e+00 0.0000000000000000e+00
5.5000000000000000e+00 0.0000000000000000e+00 0.0000000000000000e+00
5.6000000000000005e+00 0.0000000000000000e+00 0.0000000000000000e+00
5.7000000000000002e+00 0.0000000000000000e+00 0.0000000000000000e+00
5.8000000000000007e+00 0.0000000000000000e+00 0.0000000000000000e+00
5.9000000000000004e+00 0.0000000000000000e+00 0.0000000000000000e+00
6.0000000000000000e+00 0.0000000000000000e+00 0.0000000000000000e+00
6.1000000000000005e+00 0.0000000000000000e+00 0.0000000000000000e+00
6.2000000000000002e+00 0.0000000000000000e+00 0.0000000000000000e+00
6.3000000000000007e+00 0.0000000000000000e+00 0.0000000000000000e+00
6.4000000000000004e+00 0.0000000000000000e+00 0.0000000000000000e+00
6.5000000000000000e+00 0.0000000000000000e+00 0.0000000000000000e+00
6.6000000000000005e+00 0.0000000000000000e+00 0.0000000000000000e+00
6.7000000000000002e+00 0.0000000000000000e+00 0.0000000000000000e+00
6.8000000000000007e+00 0.0000000000000000e+00 0.0000000000000000e+00
6.9000000000000004e+00 0.0000000000000000e+00 0.0000000000000000e+00
7.0000000000000000e+00 0.0000000000000000e+00 0.0000000000000000e+00
7.1000000000000005e+00 0.0000000000000000e+00 0.0000000000000000e+00
7.2000000000000002e+00 0.0000000000000000e+00 0.0000000000000000e+00
7.3000000000000007e+00 0.0000000000000000e+00 0.0000000000000000e+00
7.4000000000000004e+00 0.0000000000000000e+00 0.0000000000000000e+00
7.5000000000000000e+00 0.0000000000000000e+00 0.0000000000000000e+00
7.6000000000000005e+00 0.0000000000000000e+00 0.0000000000000000e+00
7.7000000000000002e+00 0.0000000000000000e+00 0.0000000000000000e+00
7.8000000000000007e+00 0.0000000000000000e+00 0.0000000000000000e+00
7.9000000000000004e+00 0.0000000000000000e+00 0.0000000000000000e+00
8.0000000000000000e+00 0.0000000000000000e+00 0.0000000000000000e+00
8.0999999999999996e+00 0.0000000000000000e+00 0.0000000000000000e+00
8.2000000000000011e+00 0.0000000000000000e+00 0.0000000000000000e+00
8.3000000000000007e+00 0.0000000000000000e+00 0.0000000000000000e+00
8.4000000000000004e+00 0.0000000000000000e+00 0.0000000000000000e+00
8.5000000000000000e+00 0.0000000000000000e+00 0.0000000000000000e+00
8.5999999999999996e+00 0.0000000000000000e+00 0.0000000000000000e+00
8.7000000000000011e+00 0.0000000000000000e+00 0.0000000000000000e+00
8.8000000000000007e+00 0.0000000000000000e+00 0.0000000000000000e+00
8.9000000000000004e+00 0.0000000000000000e+00 0.0000000000000000e+00
9.0000000000000000e+00 0.0000000000000000e+00 0.0000000000000000e+00
9.0999999999999996e+00 0.0000000000000000e+00 0.0000000000000000e+00
9.2000000000000011e+00 0.0000000000000000e+00 0.0000000000000000e+00
9.3000000000000007e+00 0.0000000000000000e+00 0.0000000000000000e+00
9.4000000000000004e+00 0.0000000000000000e+00 0.0000000000000000e+00
9.5000000000000000e+00 0.0000000000000000e+00 0.0000000000000000e+00
9.6000000000000014e+00 0.0000000000000000e+00 0.0000000000000000e+00
9.7000000000000011e+00 0.0000000000000000e+00 0.0000000000000000e+00
9.8000000000000007e+00 0.0000000000000000e+00 0.0000000000000000e+00
9.9000000000000004e+00 0.0000000000000000e+00 0.0000000000000000e+00
1.0000000000000000e+01 0.0000000000000000e+00 0.0000000000000000e+00

POINT_DATA 101

VECTORS velocity float
5.0425103596768288e+00 0.0000000000000000e+00 0.0000000000000000e+00
5.0386696833254900e+00 0.0000000000000000e+00 0.0000000000000000e+00
5.0349322556235192e+00 0.0000000000000000e+00 0.0000000000000000e+00
5.0312665250927129e+00 0.0000000000000000e+00 0.0000000000000000e+00
5.0276482399245470e+00 0.0000000000000000e+00 0.0000000000000000e+00
5.0240467464020417e+00 0.0000000000000000e+00 0.0000000000000000e+00
5.0204542493951640e+00 0.0000000000000000e+00 0.0000000000000000e+00
5.0168399722361485e+00 0.0000000000000000e+00 0.0000000000000000e+00
5.0132443050889082e+00 0.0000000000000000e+00 0.0000000000000000e+00
5.0097686159771353e+00 0.0000000000000000e+00 0.0000000000000000e+00
5.0063459899775689e+00 0.0000000000000000e+00 0.0000000000000000e+00
5.0029832635574367e+00 0.0000000000000000e+00 0.0000000000000000e+00
4.9996198102438578e+00 0.0000000000000000e+00 0.0000000000000000e+00
4.9964096546038386e+00 0.0000000000000000e+00 0.0000000000000000e+00
4.9935926157614041e+00 0.0000000000000000e+00 0.0000000000000000e+00
4.9910237745005981e+00 0.0000000000000000e+00 0.0000000000000000e+00
4.9886583909219411e+00 0.0000000000000000e+00 0.0000000000000000e+00
4.9864775563579835e+00 0.0000000000000000e+00 0.0000000000000000e+00
4.9844719656636816e+00 0.0000000000000000e+00 0.0000000000000000e+00
4.9826385801443918e+00 0.0000000000000000e+00 0.0000000000000000e+00
4.9809758390494201e+00 0.0000000000000000e+00 0.0000000000000000e+00
4.9794816227684127e+00 0.0000000000000000e+00 0.0000000000000000e+00
4.9781573518060336e+00 0.0000000000000000e+00 0.0000000000000000e+00
4.9769942003438352e+00 0.0000000000000000e+00 0.0000000000000000e+00
4.9760712105443492e+00 0.0000000000000000e+00 0.0000000000000000e+00
4.9752331776246681e+00 0.0000000000000000e+00 0.0000000000000000e+00
4.9744728470015298e+00 0.0000000000000000e+00 0.0000000000000000e+00
4.9737601788359660e+00 0.0000000000000000e+00 0.0000000000000000e+00
4.9730783146628470e+00 0.0000000000000000e+00 0.0000000000000000e+00
4.9724166661744382e+00 0.0000000000000000e+00 0.0000000000000000e+00
4.9717687234246926e+00 0.0000000000000000e+00 0.0000000000000000e+00
4.9711305648952218e+00 0.0000000000000000e+00 0.0000000000000000e+00
4.9704998660927080e+00 0.0000000000000000e+00 0.0000000000000000e+00
4.9698752739182259e+00 0.0000000000000000e+00 0.0000000000000000e+00
4.9692560188003432e+00 0.0000000000000000e+00 0.0000000000000000e+00
4.9686416713074015e+00 0.0000000000000000e+00 0.0000000000000000e+00
4.9680320142702508e+00 0.0000000000000000e+00 0.0000000000000000e+00
4.9674269279293446e+00 0.0000000000000000e+00 0.0000000000000000e+00
4.9668264000945497e+00 0.0000000000000000e+00 0.0000000000000000e+00
4.9662303866640718e+00 0.0000000000000000e+00 0.0000000000000000e+00
4.9656389780988386e+00 0.0000000000000000e+00 0.0000000000000000e+00
4.9650522463960822e+00 0.0000000000000000e+00 0.0000000000000000e+00
4.9644702595788850e+00 0.0000000000000000e+00 0.0000000000000000e+00
4.9638930803229826e+00 0.0000000000000000e+00 0.0000000000000000e+00
4.9633207664541281e+00 0.0000000000000000e+00 0.0000000000000000e+00
4.9627533718273531e+00 0.0000000000000000e+00 0.0000000000000000e+00
4.9621909472390495e+00 0.0000000000000000e+00 0.0000000000000000e+00
4.9616335410140762e+00 0.0000000000000000e+00 0.0000000000000000e+00
4.9610811997423392e+00 0.0000000000000000e+00 0.0000000000000000e+00
4.9605339684047598e+00 0.0000000000000000e+00 0.0000000000000000e+00
4.9599918912895822e+00 0.0000000000000000e+00 0.0000000000000000e+00
4.9594550113178562e+00 0.0000000000000000e+00 0.0000000000000000e+00
4.9589233686021892e+00 0.0000000000000000e+00 0.0000000000000000e+00
4.9583970046674422e+00 0.0000000000000000e+00 0.0000000000000000e+00
4.9578759608729559e+00 0.0000000000000000e+00 0.0000000000000000e+00
4.9573602762998066e+00 0.0000000000000000e+00 0.0000000000000000e+00
4.9568499892321185e+00 0.0000000000000000e+00 0.0000000000000000e+00
4.9563451370561307e+00 0.0000000000000000e+00 0.0000000000000000e+00
4.9558457573667392e+00 0.0000000000000000e+00 0.0000000000000000e+00
4.9553518853448297e+00 0.0000000000000000e+00 0.0000000000000000e+00
4.9548635573381272e+00 0.0000000000000000e+00 0.0000000000000000e+00
4.9543808089878469e+00 0.0000000000000000e+00 0.0000000000000000e+00
4.9539036748044465e+00 0.0000000000000000e+00 0.0000000000000000e+00
4.9534321890943600e+00 0.0000000000000000e+00 0.0000000000000000e+00
4.9529663842755136e+00 0.0000000000000000e+00 0.0000000000000000e+00
4.9525062955750787e+00 0.0000000000000000e+00 0.0000000000000000e+00
4.9520519482852317e+00 0.0000000000000000e+00 0.0000000000000000e+00
4.9516033765822840e+00 0.0000000000000000e+00 0.0000000000000000e+00
4.9511606215746271e+00 0.0000000000000000e+00 0.0000000000000000e+00
4.9507237020936712e+00 0.0000000000000000e+00 0.0000000000000000e+00
4.9502926503918614e+00 0.0000000000000000e+00 0.0000000000000000e+00
4.9498674976385741e+00 0.0000000000000000e+00 0.0000000000000000e+00
4.9494482751005506e+00 0.0000000000000000e+00 0.0000000000000000e+00
4.9490350099938887e+00 0.0000000000000000e+00 0.0000000000000000e+00
4.9486277257195281e+00 0.0000000000000000e+00 0.0000000000000000e+00
4.9482264504483080e+00 0.0000000000000000e+00 0.0000000000000000e+00
4.9478312176291634e+00 0.0000000000000000e+00 0.0000000000000000e+00
4.9474420450227381e+00 0.0000000000000000e+00 0.0000000000000000e+00
4.9470589605109767e+00 0.0000000000000000e+00 0.0000000000000000e+00
4.9466819979608037e+00 0.0000000000000000e+00 0.0000000000000000e+00
4.9463111719081105e+00 0.0000000000000000e+00 0.0000000000000000e+00
4.9459465182523825e+00 0.0000000000000000e+00 0.0000000000000000e+00
4.9455880551090550e+00 0.0000000000000000e+00 0.0000000000000000e+00
4.9452358113679171e+00 0.0000000000000000e+00 0.0000000000000000e+00
4.9448897981967788e+00 0.0000000000000000e+00 0.0000000000000000e+00
4.9445500507463169e+00 0.0000000000000000e+00 0.0000000000000000e+00
4.9442165891225827e+00 0.0000000000000000e+00 0.0000000000000000e+00
4.9438894266082327e+00 0.0000000000000000e+00 0.0000000000000000e+00
4.9435685983020816e+00 0.0000000000000000e+00 0.0000000000000000e+00
4.9432541165184736e+00 0.0000000000000000e+00 0.0000000000000000e+00
4.9429460101126637e+00 0.0000000000000000e+00 0.0000000000000000e+00
4.9426442968893607e+00 0.0000000000000000e+00 0.0000000000000000e+00
4.9423489977961221e+00 0.0000000000000000e+00 0.0000000000000000e+00
4.9420601334153602e+00 0.0000000000000000e+00 0.0000000000000000e+00
4.9417777181307656e+00 0.0000000000000000e+00 0.0000000000000000e+00
4.9415017947307582e+00 0.0000000000000000e+00 0.0000000000000000e+00
4.9412322905619854e+00 0.0000000000000000e+00 0.0000000000000000e+00
4.9409695334077748e+00 0.0000000000000000e+00 0.0000000000000000e+00
4.9407125635834310e+00 0.0000000000000000e+00 0.0000000000000000e+00
4.9404643810575397e+00 0.0000000000000000e+00 0.0000000000000000e+00
4.9402161985316484e+00 0.0000000000000000e+00 0.0000000000000000e+00


SCALARS pressure float
LOOKUP_TABLE default
-5.0387464338925540e+01
-4.9909832444833640e+01
-4.9432200550741733e+01
-4.8953843192782401e+01
-4.8474222690245547e+01
-4.7992996128906611e+01
-4.7509883650744584e+01
-4.7024746243179486e+01
-4.6537373391823074e+01
-4.6047875242149082e+01
-4.5556755020380365e+01
-4.5063848769767596e+01
-4.4569189589086989e+01
-4.4072521770934571e+01
-4.3574534625607129e+01
-4.3076622784196225e+01
-4.2578620413308421e+01
-4.2080473434355532e+01
-4.1582239124164069e+01
-4.1084030214196197e+01
-4.0585987573542468e+01
-4.0088275884966500e+01
-3.9591035368720739e+01
-3.9094421644741217e+01
-3.8598692793077760e+01
-3.8104166877719457e+01
-3.7609947472354008e+01
-3.7115770089991209e+01
-3.6621392834112342e+01
-3.6126669314326463e+01
-3.5631513004243381e+01
-3.5135874083900354e+01
-3.4639725013817113e+01
-3.4143051628455673e+01
-3.3645847763379145e+01
-3.3148112040796377e+01
-3.2649845946609098e+01
-3.2151052747179094e+01
-3.1651736767181745e+01
-3.1151903117915307e+01
-3.0651557366596528e+01
-3.0150705734577620e+01
-2.9649354508202748e+01
-2.9147510065155714e+01
-2.8645178898342394e+01
-2.8142367635117246e+01
-2.7639083050305818e+01
-2.7135332074323230e+01
-2.6631121796889119e+01
-2.6126459469101796e+01
-2.5621352501726257e+01
-2.5115808466589208e+01
-2.4609835090937146e+01
-2.4103440246206272e+01
-2.3596631961879073e+01
-2.3089418419447281e+01
-2.2581807937087135e+01
-2.2073808972478851e+01
-2.1565430121057958e+01
-2.1056680108504807e+01
-2.0547567780646617e+01
-2.0038102120793056e+01
-1.9528292237394233e+01
-1.9018147355689589e+01
-1.8507676817971721e+01
-1.7996890072908027e+01
-1.7485796692982817e+01
-1.6974406315128157e+01
-1.6462728711955236e+01
-1.5950773799302471e+01
-1.5438551497999267e+01
-1.4926071865672156e+01
-1.4413345053829531e+01
-1.3900381304410612e+01
-1.3387190928291112e+01
-1.2873784299333774e+01
-1.2360171882169334e+01
-1.1846364248404956e+01
-1.1332371975211400e+01
-1.0818205749790270e+01
-1.0303876340388619e+01
-9.7893945072815534e+00
-9.2747711674676658e+00
-8.7600172215018048e+00
-8.2451436399887452e+00
-7.7301613861722842e+00
-7.2150815726902993e+00
-6.6999152974859246e+00
-6.1846736603000476e+00
-5.6693678815893636e+00
-5.1540091363791900e+00
-4.6386087019803313e+00
-4.1231778375997381e+00
-3.6077278291475987e+00
-3.0922700025810048e+00
-2.5768156331719965e+00
-2.0613762419435893e+00
-1.5459626086908451e+00
-1.0305878699358573e+00
-5.1525816369790722e-01
0.0000000000000000e+00


SCALARS diameter float
LOOKUP_TABLE default
9.9338182943914910e-01
9.9359591092283472e-01
9.9381006096455704e-01
9.9402462206213693e-01
9.9424005877363786e-01
9.9445625539678739e-01
9.9467809417767283e-01
9.9489917431541253e-01
9.9512947315582956e-01
9.9530999743119986e-01
9.9549129121305902e-01
9.9567343931027585e-01
9.9585643889823927e-01
9.9603879099737247e-01
9.9609054631825500e-01
9.9613526452613610e-01
9.9617999670874313e-01
9.9622474961528773e-01
9.9626951022099519e-01
9.9631428162303304e-01
9.9635903322623176e-01
9.9640379205145602e-01
9.9645068573128881e-01
9.9649392211871834e-01
9.9652474196092766e-01
9.9656915091727816e-01
9.9661354869023300e-01
9.9665794440145739e-01
9.9670235882650293e-01
9.9674680423631223e-01
9.9679128996723942e-01
9.9683582077849076e-01
9.9688039967778153e-01
9.9692502798055360e-01
9.9696970641592431e-01
9.9701443518912347e-01
9.9705921422487542e-01
9.9710404326021607e-01
9.9714892195705063e-01
9.9719384982793635e-01
9.9723882663638630e-01
9.9728385214873161e-01
9.9732892576962606e-01
9.9737404689202991e-01
9.9741921489820407e-01
9.9746442918024658e-01
9.9750968912117777e-01
9.9755499411274784e-01
9.9760034352223637e-01
9.9764573668695256e-01
9.9769117294852616e-01
9.9773665137730638e-01
9.9778217200430785e-01
9.9782773396921254e-01
9.9787333575943460e-01
9.9791897712878086e-01
9.9796465732086959e-01
9.9801037563051598e-01
9.9805613137426241e-01
9.9810192375000217e-01
9.9814775175748793e-01
9.9819361468477719e-01
9.9823951175948555e-01
9.9828544215965542e-01
9.9833140505617524e-01
9.9837739960182548e-01
9.9842342495139380e-01
9.9846948345239606e-01
9.9851556523165119e-01
9.9856167850393995e-01
9.9860781906608231e-01
9.9865398598857213e-01
9.9870017731591754e-01
9.9874639294785938e-01
9.9879263230917514e-01
9.9883889723900587e-01
9.9888517938989307e-01
9.9893148562715472e-01
9.9897781135555441e-01
9.9902415564995373e-01
9.9907051732720753e-01
9.9911689590383723e-01
9.9916329048040187e-01
9.9920970045207991e-01
9.9925612473881775e-01
9.9930256255918581e-01
9.9934901008747756e-01
9.9939547333146317e-01
9.9944194391879460e-01
9.9948842368162516e-01
9.9953491093822566e-01
9.9958140521996008e-01
9.9962790528330014e-01
9.9967441008857860e-01
9.9972091862814261e-01
9.9976743028478610e-01
9.9981394402446833e-01
9.9986045894774089e-01
9.9990697414720786e-01
9.9995348746825186e-01
9.9999999933306039e-01


SCALARS iters float
LOOKUP_TABLE default
2.1000000000000000e+01
2.1000000000000000e+01
2.1000000000000000e+01
2.1000000000000000e+01
2.1000000000000000e+01
2.1000000000000000e+01
2.1000000000000000e+01
2.1000000000000000e+01
2.1000000000000000e+01
2.1000000000000000e+01
2.1000000000000000e+01
2.1000000000000000e+01
2.1000000000000000e+01
2.1000000000000000e+01
2.1000000000000000e+01
2.1000000000000000e+01
2.1000000000000000e+01
2.1000000000000000e+01
2.1000000000000000e+01
2.1000000000000000e+01
2.1000000000000000e+01
2.1000000000000000e+01
2.1000000000000000e+01
2.1000000000000000e+01
2.1000000000000000e+01
2.1000000000000000e+01
2.1000000000000000e+01
2.1000000000000000e+01
2.1000000000000000e+01
2.1000000000000000e+01
2.1000000000000000e+01
2.1000000000000000e+01
2.1000000000000000e+01
2.1000000000000000e+01
2.1000000000000000e+01
2.1000000000000000e+01
2.1000000000000000e+01
2.1000000000000000e+01
2.1000000000000000e+01
2.1000000000000000e+01
2.1000000000000000e+01
2.1000000000000000e+01
2.1000000000000000e+01
2.1000000000000000e+01
2.1000000000000000e+01
2.1000000000000000e+01
2.1000000000000000e+01
2.1000000000000000e+01
2.1000000000000000e+01
2.1000000000000000e+01
2.1000000000000000e+01
2.1000000000000000e+01
2.1000000000000000e+01
2.1000000000000000e+01
2.1000000000000000e+01
2.1000000000000000e+01
2.1000000000000000e+01
2.1000000000000000e+01
2.1000000000000000e+01
2.1000000000000000e+01
2.1000000000000000e+01
2.1000000000000000e+01
2.1000000000000000e+01
2.1000000000000000e+01
2.1000000000000000e+01
2.1000000000000000e+01
2.1000000000000000e+01
2.1000000000000000e+01
2.1000000000000000e+01
2.1000000000000000e+01
2.1000000000000000e+01
2.1000000000000000e+01
2.1000000000000000e+01
2.1000000000000000e+01
2.1000000000000000e+01
2.1000000000000000e+01
2.1000000000000000e+01
2.1000000000000000e+01
2.1000000000000000e+01
2.1000000000000000e+01
2.1000000000000000e+01
2.1000000000000000e+01
2.1000000000000000e+01
2.1000000000000000e+01
2.1000000000000000e+01
2.1000000000000000e+01
2.1000000000000000e+01
2.1000000000000000e+01
2.1000000000000000e+01
2.1000000000000000e+01
2.1000000000000000e+01
2.1000000000000000e+01
2.1000000000000000e+01
2.1000000000000000e+01
2.1000000000000000e+01
2.1000000000000000e+01
2.1000000000000000e+01
2.1000000000000000e+01
2.1000000000000000e+01
2.1000000000000000e+01
2.1000000000000000e+01


