# vtk DataFile Version 2.0

ASCII

DATASET UNSTRUCTURED_GRID

POINTS 101 float

0.0000000000000000e+00 0.0000000000000000e+00 0.0000000000000000e+00
1.0000000000000001e-01 0.0000000000000000e+00 0.0000000000000000e+00
2.0000000000000001e-01 0.0000000000000000e+00 0.0000000000000000e+00
3.0000000000000004e-01 0.0000000000000000e+00 0.0000000000000000e+00
4.0000000000000002e-01 0.0000000000000000e+00 0.0000000000000000e+00
5.0000000000000000e-01 0.0000000000000000e+00 0.0000000000000000e+00
6.0000000000000009e-01 0.0000000000000000e+00 0.0000000000000000e+00
7.0000000000000007e-01 0.0000000000000000e+00 0.0000000000000000e+00
8.0000000000000004e-01 0.0000000000000000e+00 0.0000000000000000e+00
9.0000000000000002e-01 0.0000000000000000e+00 0.0000000000000000e+00
1.0000000000000000e+00 0.0000000000000000e+00 0.0000000000000000e+00
1.1000000000000001e+00 0.0000000000000000e+00 0.0000000000000000e+00
1.2000000000000002e+00 0.0000000000000000e+00 0.0000000000000000e+00
1.3000000000000000e+00 0.0000000000000000e+00 0.0000000000000000e+00
1.4000000000000001e+00 0.0000000000000000e+00 0.0000000000000000e+00
1.5000000000000000e+00 0.0000000000000000e+00 0.0000000000000000e+00
1.6000000000000001e+00 0.0000000000000000e+00 0.0000000000000000e+00
1.7000000000000002e+00 0.0000000000000000e+00 0.0000000000000000e+00
1.8000000000000000e+00 0.0000000000000000e+00 0.0000000000000000e+00
1.9000000000000001e+00 0.0000000000000000e+00 0.0000000000000000e+00
2.0000000000000000e+00 0.0000000000000000e+00 0.0000000000000000e+00
2.1000000000000001e+00 0.0000000000000000e+00 0.0000000000000000e+00
2.2000000000000002e+00 0.0000000000000000e+00 0.0000000000000000e+00
2.3000000000000003e+00 0.0000000000000000e+00 0.0000000000000000e+00
2.4000000000000004e+00 0.0000000000000000e+00 0.0000000000000000e+00
2.5000000000000000e+00 0.0000000000000000e+00 0.0000000000000000e+00
2.6000000000000001e+00 0.0000000000000000e+00 0.0000000000000000e+00
2.7000000000000002e+00 0.0000000000000000e+00 0.0000000000000000e+00
2.8000000000000003e+00 0.0000000000000000e+00 0.0000000000000000e+00
2.9000000000000004e+00 0.0000000000000000e+00 0.0000000000000000e+00
3.0000000000000000e+00 0.0000000000000000e+00 0.0000000000000000e+00
3.1000000000000001e+00 0.0000000000000000e+00 0.0000000000000000e+00
3.2000000000000002e+00 0.0000000000000000e+00 0.0000000000000000e+00
3.3000000000000003e+00 0.0000000000000000e+00 0.0000000000000000e+00
3.4000000000000004e+00 0.0000000000000000e+00 0.0000000000000000e+00
3.5000000000000000e+00 0.0000000000000000e+00 0.0000000000000000e+00
3.6000000000000001e+00 0.0000000000000000e+00 0.0000000000000000e+00
3.7000000000000002e+00 0.0000000000000000e+00 0.0000000000000000e+00
3.8000000000000003e+00 0.0000000000000000e+00 0.0000000000000000e+00
3.9000000000000004e+00 0.0000000000000000e+00 0.0000000000000000e+00
4.0000000000000000e+00 0.0000000000000000e+00 0.0000000000000000e+00
4.1000000000000005e+00 0.0000000000000000e+00 0.0000000000000000e+00
4.2000000000000002e+00 0.0000000000000000e+00 0.0000000000000000e+00
4.2999999999999998e+00 0.0000000000000000e+00 0.0000000000000000e+00
4.4000000000000004e+00 0.0000000000000000e+00 0.0000000000000000e+00
4.5000000000000000e+00 0.0000000000000000e+00 0.0000000000000000e+00
4.6000000000000005e+00 0.0000000000000000e+00 0.0000000000000000e+00
4.7000000000000002e+00 0.0000000000000000e+00 0.0000000000000000e+00
4.8000000000000007e+00 0.0000000000000000e+00 0.0000000000000000e+00
4.9000000000000004e+00 0.0000000000000000e+00 0.0000000000000000e+00
5.0000000000000000e+00 0.0000000000000000e+00 0.0000000000000000e+00
5.1000000000000005e+00 0.0000000000000000e+00 0.0000000000000000e+00
5.2000000000000002e+00 0.0000000000000000e+00 0.0000000000000000e+00
5.3000000000000007e+00 0.0000000000000000e+00 0.0000000000000000e+00
5.4000000000000004e+00 0.0000000000000000e+00 0.0000000000000000e+00
5.5000000000000000e+00 0.0000000000000000e+00 0.0000000000000000e+00
5.6000000000000005e+00 0.0000000000000000e+00 0.0000000000000000e+00
5.7000000000000002e+00 0.0000000000000000e+00 0.0000000000000000e+00
5.8000000000000007e+00 0.0000000000000000e+00 0.0000000000000000e+00
5.9000000000000004e+00 0.0000000000000000e+00 0.0000000000000000e+00
6.0000000000000000e+00 0.0000000000000000e+00 0.0000000000000000e+00
6.1000000000000005e+00 0.0000000000000000e+00 0.0000000000000000e+00
6.2000000000000002e+00 0.0000000000000000e+00 0.0000000000000000e+00
6.3000000000000007e+00 0.0000000000000000e+00 0.0000000000000000e+00
6.4000000000000004e+00 0.0000000000000000e+00 0.0000000000000000e+00
6.5000000000000000e+00 0.0000000000000000e+00 0.0000000000000000e+00
6.6000000000000005e+00 0.0000000000000000e+00 0.0000000000000000e+00
6.7000000000000002e+00 0.0000000000000000e+00 0.0000000000000000e+00
6.8000000000000007e+00 0.0000000000000000e+00 0.0000000000000000e+00
6.9000000000000004e+00 0.0000000000000000e+00 0.0000000000000000e+00
7.0000000000000000e+00 0.0000000000000000e+00 0.0000000000000000e+00
7.1000000000000005e+00 0.0000000000000000e+00 0.0000000000000000e+00
7.2000000000000002e+00 0.0000000000000000e+00 0.0000000000000000e+00
7.3000000000000007e+00 0.0000000000000000e+00 0.0000000000000000e+00
7.4000000000000004e+00 0.0000000000000000e+00 0.0000000000000000e+00
7.5000000000000000e+00 0.0000000000000000e+00 0.0000000000000000e+00
7.6000000000000005e+00 0.0000000000000000e+00 0.0000000000000000e+00
7.7000000000000002e+00 0.0000000000000000e+00 0.0000000000000000e+00
7.8000000000000007e+00 0.0000000000000000e+00 0.0000000000000000e+00
7.9000000000000004e+00 0.0000000000000000e+00 0.0000000000000000e+00
8.0000000000000000e+00 0.0000000000000000e+00 0.0000000000000000e+00
8.0999999999999996e+00 0.0000000000000000e+00 0.0000000000000000e+00
8.2000000000000011e+00 0.0000000000000000e+00 0.0000000000000000e+00
8.3000000000000007e+00 0.0000000000000000e+00 0.0000000000000000e+00
8.4000000000000004e+00 0.0000000000000000e+00 0.0000000000000000e+00
8.5000000000000000e+00 0.0000000000000000e+00 0.0000000000000000e+00
8.5999999999999996e+00 0.0000000000000000e+00 0.0000000000000000e+00
8.7000000000000011e+00 0.0000000000000000e+00 0.0000000000000000e+00
8.8000000000000007e+00 0.0000000000000000e+00 0.0000000000000000e+00
8.9000000000000004e+00 0.0000000000000000e+00 0.0000000000000000e+00
9.0000000000000000e+00 0.0000000000000000e+00 0.0000000000000000e+00
9.0999999999999996e+00 0.0000000000000000e+00 0.0000000000000000e+00
9.2000000000000011e+00 0.0000000000000000e+00 0.0000000000000000e+00
9.3000000000000007e+00 0.0000000000000000e+00 0.0000000000000000e+00
9.4000000000000004e+00 0.0000000000000000e+00 0.0000000000000000e+00
9.5000000000000000e+00 0.0000000000000000e+00 0.0000000000000000e+00
9.6000000000000014e+00 0.0000000000000000e+00 0.0000000000000000e+00
9.7000000000000011e+00 0.0000000000000000e+00 0.0000000000000000e+00
9.8000000000000007e+00 0.0000000000000000e+00 0.0000000000000000e+00
9.9000000000000004e+00 0.0000000000000000e+00 0.0000000000000000e+00
1.0000000000000000e+01 0.0000000000000000e+00 0.0000000000000000e+00

POINT_DATA 101

VECTORS velocity float
6.7308912009588724e+00 0.0000000000000000e+00 0.0000000000000000e+00
6.7309830607853254e+00 0.0000000000000000e+00 0.0000000000000000e+00
6.7310723009038229e+00 0.0000000000000000e+00 0.0000000000000000e+00
6.7311579150750553e+00 0.0000000000000000e+00 0.0000000000000000e+00
6.7312408683361156e+00 0.0000000000000000e+00 0.0000000000000000e+00
6.7313229798702903e+00 0.0000000000000000e+00 0.0000000000000000e+00
6.7314079213239246e+00 0.0000000000000000e+00 0.0000000000000000e+00
6.7314962160833769e+00 0.0000000000000000e+00 0.0000000000000000e+00
6.7315821562819309e+00 0.0000000000000000e+00 0.0000000000000000e+00
6.7316620073019582e+00 0.0000000000000000e+00 0.0000000000000000e+00
6.7317380310764428e+00 0.0000000000000000e+00 0.0000000000000000e+00
6.7318116271654667e+00 0.0000000000000000e+00 0.0000000000000000e+00
6.7318838139089516e+00 0.0000000000000000e+00 0.0000000000000000e+00
6.7319572720519885e+00 0.0000000000000000e+00 0.0000000000000000e+00
6.7320324917001786e+00 0.0000000000000000e+00 0.0000000000000000e+00
6.7321086532273124e+00 0.0000000000000000e+00 0.0000000000000000e+00
6.7321829629140719e+00 0.0000000000000000e+00 0.0000000000000000e+00
6.7322532656399341e+00 0.0000000000000000e+00 0.0000000000000000e+00
6.7323212278669970e+00 0.0000000000000000e+00 0.0000000000000000e+00
6.7323875264709896e+00 0.0000000000000000e+00 0.0000000000000000e+00
6.7324522603396879e+00 0.0000000000000000e+00 0.0000000000000000e+00
6.7325164306062799e+00 0.0000000000000000e+00 0.0000000000000000e+00
6.7325807500920130e+00 0.0000000000000000e+00 0.0000000000000000e+00
6.7326456435204891e+00 0.0000000000000000e+00 0.0000000000000000e+00
6.7327101698628944e+00 0.0000000000000000e+00 0.0000000000000000e+00
6.7327730414352551e+00 0.0000000000000000e+00 0.0000000000000000e+00
6.7328347429471087e+00 0.0000000000000000e+00 0.0000000000000000e+00
6.7328953744749738e+00 0.0000000000000000e+00 0.0000000000000000e+00
6.7329550891854497e+00 0.0000000000000000e+00 0.0000000000000000e+00
6.7330130998631814e+00 0.0000000000000000e+00 0.0000000000000000e+00
6.7330689651960922e+00 0.0000000000000000e+00 0.0000000000000000e+00
6.7331232900188516e+00 0.0000000000000000e+00 0.0000000000000000e+00
6.7331766119598635e+00 0.0000000000000000e+00 0.0000000000000000e+00
6.7332295029394658e+00 0.0000000000000000e+00 0.0000000000000000e+00
6.7332817123338451e+00 0.0000000000000000e+00 0.0000000000000000e+00
6.7333330133872940e+00 0.0000000000000000e+00 0.0000000000000000e+00
6.7333833329812434e+00 0.0000000000000000e+00 0.0000000000000000e+00
6.7334326316054112e+00 0.0000000000000000e+00 0.0000000000000000e+00
6.7334808648044762e+00 0.0000000000000000e+00 0.0000000000000000e+00
6.7335280717079788e+00 0.0000000000000000e+00 0.0000000000000000e+00
6.7335743303395725e+00 0.0000000000000000e+00 0.0000000000000000e+00
6.7336195831611603e+00 0.0000000000000000e+00 0.0000000000000000e+00
6.7336638179246266e+00 0.0000000000000000e+00 0.0000000000000000e+00
6.7337070271659023e+00 0.0000000000000000e+00 0.0000000000000000e+00
6.7337492058939610e+00 0.0000000000000000e+00 0.0000000000000000e+00
6.7337903504710415e+00 0.0000000000000000e+00 0.0000000000000000e+00
6.7338304581046877e+00 0.0000000000000000e+00 0.0000000000000000e+00
6.7338695263419268e+00 0.0000000000000000e+00 0.0000000000000000e+00
6.7339075538315409e+00 0.0000000000000000e+00 0.0000000000000000e+00
6.7339445390422608e+00 0.0000000000000000e+00 0.0000000000000000e+00
6.7339804799572560e+00 0.0000000000000000e+00 0.0000000000000000e+00
6.7340153753348009e+00 0.0000000000000000e+00 0.0000000000000000e+00
6.7340492237025726e+00 0.0000000000000000e+00 0.0000000000000000e+00
6.7340820235131327e+00 0.0000000000000000e+00 0.0000000000000000e+00
6.7341137736720489e+00 0.0000000000000000e+00 0.0000000000000000e+00
6.7341444731304909e+00 0.0000000000000000e+00 0.0000000000000000e+00
6.7341741197873999e+00 0.0000000000000000e+00 0.0000000000000000e+00
6.7342027123334063e+00 0.0000000000000000e+00 0.0000000000000000e+00
6.7342302504246145e+00 0.0000000000000000e+00 0.0000000000000000e+00
6.7342567327826766e+00 0.0000000000000000e+00 0.0000000000000000e+00
6.7342821580882974e+00 0.0000000000000000e+00 0.0000000000000000e+00
6.7343065253993668e+00 0.0000000000000000e+00 0.0000000000000000e+00
6.7343298336565285e+00 0.0000000000000000e+00 0.0000000000000000e+00
6.7343520814116342e+00 0.0000000000000000e+00 0.0000000000000000e+00
6.7343732675644867e+00 0.0000000000000000e+00 0.0000000000000000e+00
6.7343933911137839e+00 0.0000000000000000e+00 0.0000000000000000e+00
6.7344124509395744e+00 0.0000000000000000e+00 0.0000000000000000e+00
6.7344304461675319e+00 0.0000000000000000e+00 0.0000000000000000e+00
6.7344473759054102e+00 0.0000000000000000e+00 0.0000000000000000e+00
6.7344632391535741e+00 0.0000000000000000e+00 0.0000000000000000e+00
6.7344780349594959e+00 0.0000000000000000e+00 0.0000000000000000e+00
6.7344917624141365e+00 0.0000000000000000e+00 0.0000000000000000e+00
6.7345044205970481e+00 0.0000000000000000e+00 0.0000000000000000e+00
6.7345160086890665e+00 0.0000000000000000e+00 0.0000000000000000e+00
6.7345265259195219e+00 0.0000000000000000e+00 0.0000000000000000e+00
6.7345359713092368e+00 0.0000000000000000e+00 0.0000000000000000e+00
6.7345443444000965e+00 0.0000000000000000e+00 0.0000000000000000e+00
6.7345516440651565e+00 0.0000000000000000e+00 0.0000000000000000e+00
6.7345578698630471e+00 0.0000000000000000e+00 0.0000000000000000e+00
6.7345630216918808e+00 0.0000000000000000e+00 0.0000000000000000e+00
6.7345670981935264e+00 0.0000000000000000e+00 0.0000000000000000e+00
6.7345700986707380e+00 0.0000000000000000e+00 0.0000000000000000e+00
6.7345720224008581e+00 0.0000000000000000e+00 0.0000000000000000e+00
6.7345728699532446e+00 0.0000000000000000e+00 0.0000000000000000e+00
6.7345726401085129e+00 0.0000000000000000e+00 0.0000000000000000e+00
6.7345713308630257e+00 0.0000000000000000e+00 0.0000000000000000e+00
6.7345689417228245e+00 0.0000000000000000e+00 0.0000000000000000e+00
6.7345654726057740e+00 0.0000000000000000e+00 0.0000000000000000e+00
6.7345609239994308e+00 0.0000000000000000e+00 0.0000000000000000e+00
6.7345552951841974e+00 0.0000000000000000e+00 0.0000000000000000e+00
6.7345485869507673e+00 0.0000000000000000e+00 0.0000000000000000e+00
6.7345407970242004e+00 0.0000000000000000e+00 0.0000000000000000e+00
6.7345319254191160e+00 0.0000000000000000e+00 0.0000000000000000e+00
6.7345219720340204e+00 0.0000000000000000e+00 0.0000000000000000e+00
6.7345109386869533e+00 0.0000000000000000e+00 0.0000000000000000e+00
6.7344988154309320e+00 0.0000000000000000e+00 0.0000000000000000e+00
6.7344856286866879e+00 0.0000000000000000e+00 0.0000000000000000e+00
6.7344713049686868e+00 0.0000000000000000e+00 0.0000000000000000e+00
6.7344560442343671e+00 0.0000000000000000e+00 0.0000000000000000e+00
6.7344393003442740e+00 0.0000000000000000e+00 0.0000000000000000e+00
6.7344225564541809e+00 0.0000000000000000e+00 0.0000000000000000e+00


SCALARS pressure float
LOOKUP_TABLE default
-3.3367831737373894e+00
-3.3020186921869921e+00
-3.2672542106365943e+00
-3.2325162654428050e+00
-3.1978085750165075e+00
-3.1631365652070862e+00
-3.1285100886587198e+00
-3.0939489866062027e+00
-3.0594615045997284e+00
-3.0250233611106432e+00
-2.9906091451351107e+00
-2.9562207537996232e+00
-2.9218647719294846e+00
-2.8875475140663123e+00
-2.8532828393456948e+00
-2.8190768903865684e+00
-2.7849273045278276e+00
-2.7508199542194305e+00
-2.7167399982041398e+00
-2.6826900418419806e+00
-2.6486736529124451e+00
-2.6146919987500894e+00
-2.5807495685328989e+00
-2.5468505039507487e+00
-2.5129975198759258e+00
-2.4791869702786085e+00
-2.4454115655232425e+00
-2.4116706841170177e+00
-2.3779641392845980e+00
-2.3442921353436610e+00
-2.3106506610581219e+00
-2.2770359513243204e+00
-2.2434491498451323e+00
-2.2098926340350569e+00
-2.1763693350196900e+00
-2.1428785737267217e+00
-2.1094186430936501e+00
-2.0759882162782501e+00
-2.0425862503750194e+00
-2.0092117456488037e+00
-1.9758641798139440e+00
-1.9425434189623560e+00
-1.9092487531225124e+00
-1.8759794839495119e+00
-1.8427349294471307e+00
-1.8095144182121536e+00
-1.7763172845810253e+00
-1.7431428660446882e+00
-1.7099905008901675e+00
-1.6768595314430677e+00
-1.6437492995070542e+00
-1.6106591437336846e+00
-1.5775884046807123e+00
-1.5445364218820197e+00
-1.5115025337066847e+00
-1.4784860797581196e+00
-1.4454863997535912e+00
-1.4125028281489196e+00
-1.3795347009778021e+00
-1.3465813588148579e+00
-1.3136421389625474e+00
-1.2807163771190428e+00
-1.2478034098428781e+00
-1.2149025730541674e+00
-1.1820132003233004e+00
-1.1491346257357433e+00
-1.1162661836599657e+00
-1.0834072076823089e+00
-1.0505570319586337e+00
-1.0177149904400475e+00
-9.8488041622816069e-01
-9.5205264208701756e-01
-9.1923100059725871e-01
-8.8641482395566285e-01
-8.5360344445280301e-01
-8.2079619439449525e-01
-7.8799240489145750e-01
-7.5519140886906733e-01
-7.2239253652061797e-01
-6.8959512014291091e-01
-6.5679849406977053e-01
-6.2400198728261513e-01
-5.9120492995598051e-01
-5.5840665235870601e-01
-5.2560649061314946e-01
-4.9280377427857747e-01
-4.5999782708698367e-01
-4.2718797777231182e-01
-3.9437355837260024e-01
-3.6155390450667885e-01
-3.2872834730977096e-01
-2.9589622346365030e-01
-2.6305685703937232e-01
-2.3020957880400464e-01
-1.9735372045656704e-01
-1.6448862457981353e-01
-1.3161357816251373e-01
-9.8728030911158671e-02
-6.5830989836918735e-02
-3.2922671435714465e-02
0.0000000000000000e+00


SCALARS diameter float
LOOKUP_TABLE default
9.9969945698006479e-01
9.9970337761039685e-01
9.9970631246797359e-01
9.9970970620652966e-01
9.9971312322873795e-01
9.9971652459808158e-01
9.9971894401820505e-01
9.9972031830597974e-01
9.9972196386728929e-01
9.9972531074777238e-01
9.9972918287862034e-01
9.9973304823552522e-01
9.9973687879929263e-01
9.9974016344852978e-01
9.9974261815738974e-01
9.9974489710106917e-01
9.9974723689151535e-01
9.9975062625244804e-01
9.9975418107174119e-01
9.9975770505315786e-01
9.9976124588625237e-01
9.9976469471383578e-01
9.9976775891523362e-01
9.9977056411652454e-01
9.9977311253138379e-01
9.9977602362714979e-01
9.9977899659498248e-01
9.9978192707404812e-01
9.9978486157811153e-01
9.9978783072272881e-01
9.9979116442101723e-01
9.9979449459679604e-01
9.9979781075610807e-01
9.9980090493297236e-01
9.9980391286914838e-01
9.9980692238000923e-01
9.9980993332774215e-01
9.9981294594213754e-01
9.9981595990290273e-01
9.9981897398392638e-01
9.9982195230922311e-01
9.9982492775536991e-01
9.9982790178824454e-01
9.9983087489534461e-01
9.9983384728101410e-01
9.9983681911675604e-01
9.9983979049472127e-01
9.9984276153017460e-01
9.9984573220607342e-01
9.9984870237136991e-01
9.9985167230463123e-01
9.9985464193630202e-01
9.9985761125418282e-01
9.9986058036483250e-01
9.9986354921777498e-01
9.9986651774985269e-01
9.9986948611237769e-01
9.9987245451284268e-01
9.9987542256342676e-01
9.9987839034849180e-01
9.9988135796277233e-01
9.9988432537736438e-01
9.9988729255214182e-01
9.9989025960305278e-01
9.9989322657528379e-01
9.9989619340453195e-01
9.9989916015553382e-01
9.9990212679768420e-01
9.9990509331167710e-01
9.9990805972568852e-01
9.9991102606430693e-01
9.9991399232762890e-01
9.9991695853536100e-01
9.9991992468965718e-01
9.9992289077418428e-01
9.9992585682769353e-01
9.9992882284404816e-01
9.9993178876540167e-01
9.9993475478304505e-01
9.9993772048702212e-01
9.9994068622007337e-01
9.9994365197228663e-01
9.9994661772855598e-01
9.9994958334042738e-01
9.9995254863529337e-01
9.9995551437609664e-01
9.9995848025552592e-01
9.9996144630458617e-01
9.9996441214148069e-01
9.9996737788809853e-01
9.9997034347497515e-01
9.9997330884071745e-01
9.9997627480384665e-01
9.9997924015252471e-01
9.9998220570885221e-01
9.9998517130065157e-01
9.9998813692709831e-01
9.9999110259441570e-01
9.9999406822615899e-01
9.9999703392622319e-01
1.0000000000705254e+00


SCALARS iters float
LOOKUP_TABLE default
3.0000000000000000e+00
3.0000000000000000e+00
3.0000000000000000e+00
3.0000000000000000e+00
3.0000000000000000e+00
3.0000000000000000e+00
3.0000000000000000e+00
3.0000000000000000e+00
3.0000000000000000e+00
3.0000000000000000e+00
3.0000000000000000e+00
3.0000000000000000e+00
3.0000000000000000e+00
3.0000000000000000e+00
3.0000000000000000e+00
3.0000000000000000e+00
3.0000000000000000e+00
3.0000000000000000e+00
3.0000000000000000e+00
3.0000000000000000e+00
3.0000000000000000e+00
3.0000000000000000e+00
3.0000000000000000e+00
3.0000000000000000e+00
3.0000000000000000e+00
3.0000000000000000e+00
3.0000000000000000e+00
3.0000000000000000e+00
3.0000000000000000e+00
3.0000000000000000e+00
3.0000000000000000e+00
3.0000000000000000e+00
3.0000000000000000e+00
3.0000000000000000e+00
3.0000000000000000e+00
3.0000000000000000e+00
3.0000000000000000e+00
3.0000000000000000e+00
3.0000000000000000e+00
3.0000000000000000e+00
3.0000000000000000e+00
3.0000000000000000e+00
3.0000000000000000e+00
3.0000000000000000e+00
3.0000000000000000e+00
3.0000000000000000e+00
3.0000000000000000e+00
3.0000000000000000e+00
3.0000000000000000e+00
3.0000000000000000e+00
3.0000000000000000e+00
3.0000000000000000e+00
3.0000000000000000e+00
3.0000000000000000e+00
3.0000000000000000e+00
3.0000000000000000e+00
3.0000000000000000e+00
3.0000000000000000e+00
3.0000000000000000e+00
3.0000000000000000e+00
3.0000000000000000e+00
3.0000000000000000e+00
3.0000000000000000e+00
3.0000000000000000e+00
3.0000000000000000e+00
3.0000000000000000e+00
3.0000000000000000e+00
3.0000000000000000e+00
3.0000000000000000e+00
3.0000000000000000e+00
3.0000000000000000e+00
3.0000000000000000e+00
3.0000000000000000e+00
3.0000000000000000e+00
3.0000000000000000e+00
3.0000000000000000e+00
3.0000000000000000e+00
3.0000000000000000e+00
3.0000000000000000e+00
3.0000000000000000e+00
3.0000000000000000e+00
3.0000000000000000e+00
3.0000000000000000e+00
3.0000000000000000e+00
3.0000000000000000e+00
3.0000000000000000e+00
3.0000000000000000e+00
3.0000000000000000e+00
3.0000000000000000e+00
3.0000000000000000e+00
3.0000000000000000e+00
3.0000000000000000e+00
3.0000000000000000e+00
3.0000000000000000e+00
3.0000000000000000e+00
3.0000000000000000e+00
3.0000000000000000e+00
3.0000000000000000e+00
3.0000000000000000e+00
3.0000000000000000e+00
3.0000000000000000e+00


