# vtk DataFile Version 2.0

ASCII

DATASET UNSTRUCTURED_GRID

POINTS 101 float

0.0000000000000000e+00 0.0000000000000000e+00 0.0000000000000000e+00
1.0000000000000001e-01 0.0000000000000000e+00 0.0000000000000000e+00
2.0000000000000001e-01 0.0000000000000000e+00 0.0000000000000000e+00
3.0000000000000004e-01 0.0000000000000000e+00 0.0000000000000000e+00
4.0000000000000002e-01 0.0000000000000000e+00 0.0000000000000000e+00
5.0000000000000000e-01 0.0000000000000000e+00 0.0000000000000000e+00
6.0000000000000009e-01 0.0000000000000000e+00 0.0000000000000000e+00
7.0000000000000007e-01 0.0000000000000000e+00 0.0000000000000000e+00
8.0000000000000004e-01 0.0000000000000000e+00 0.0000000000000000e+00
9.0000000000000002e-01 0.0000000000000000e+00 0.0000000000000000e+00
1.0000000000000000e+00 0.0000000000000000e+00 0.0000000000000000e+00
1.1000000000000001e+00 0.0000000000000000e+00 0.0000000000000000e+00
1.2000000000000002e+00 0.0000000000000000e+00 0.0000000000000000e+00
1.3000000000000000e+00 0.0000000000000000e+00 0.0000000000000000e+00
1.4000000000000001e+00 0.0000000000000000e+00 0.0000000000000000e+00
1.5000000000000000e+00 0.0000000000000000e+00 0.0000000000000000e+00
1.6000000000000001e+00 0.0000000000000000e+00 0.0000000000000000e+00
1.7000000000000002e+00 0.0000000000000000e+00 0.0000000000000000e+00
1.8000000000000000e+00 0.0000000000000000e+00 0.0000000000000000e+00
1.9000000000000001e+00 0.0000000000000000e+00 0.0000000000000000e+00
2.0000000000000000e+00 0.0000000000000000e+00 0.0000000000000000e+00
2.1000000000000001e+00 0.0000000000000000e+00 0.0000000000000000e+00
2.2000000000000002e+00 0.0000000000000000e+00 0.0000000000000000e+00
2.3000000000000003e+00 0.0000000000000000e+00 0.0000000000000000e+00
2.4000000000000004e+00 0.0000000000000000e+00 0.0000000000000000e+00
2.5000000000000000e+00 0.0000000000000000e+00 0.0000000000000000e+00
2.6000000000000001e+00 0.0000000000000000e+00 0.0000000000000000e+00
2.7000000000000002e+00 0.0000000000000000e+00 0.0000000000000000e+00
2.8000000000000003e+00 0.0000000000000000e+00 0.0000000000000000e+00
2.9000000000000004e+00 0.0000000000000000e+00 0.0000000000000000e+00
3.0000000000000000e+00 0.0000000000000000e+00 0.0000000000000000e+00
3.1000000000000001e+00 0.0000000000000000e+00 0.0000000000000000e+00
3.2000000000000002e+00 0.0000000000000000e+00 0.0000000000000000e+00
3.3000000000000003e+00 0.0000000000000000e+00 0.0000000000000000e+00
3.4000000000000004e+00 0.0000000000000000e+00 0.0000000000000000e+00
3.5000000000000000e+00 0.0000000000000000e+00 0.0000000000000000e+00
3.6000000000000001e+00 0.0000000000000000e+00 0.0000000000000000e+00
3.7000000000000002e+00 0.0000000000000000e+00 0.0000000000000000e+00
3.8000000000000003e+00 0.0000000000000000e+00 0.0000000000000000e+00
3.9000000000000004e+00 0.0000000000000000e+00 0.0000000000000000e+00
4.0000000000000000e+00 0.0000000000000000e+00 0.0000000000000000e+00
4.1000000000000005e+00 0.0000000000000000e+00 0.0000000000000000e+00
4.2000000000000002e+00 0.0000000000000000e+00 0.0000000000000000e+00
4.2999999999999998e+00 0.0000000000000000e+00 0.0000000000000000e+00
4.4000000000000004e+00 0.0000000000000000e+00 0.0000000000000000e+00
4.5000000000000000e+00 0.0000000000000000e+00 0.0000000000000000e+00
4.6000000000000005e+00 0.0000000000000000e+00 0.0000000000000000e+00
4.7000000000000002e+00 0.0000000000000000e+00 0.0000000000000000e+00
4.8000000000000007e+00 0.0000000000000000e+00 0.0000000000000000e+00
4.9000000000000004e+00 0.0000000000000000e+00 0.0000000000000000e+00
5.0000000000000000e+00 0.0000000000000000e+00 0.0000000000000000e+00
5.1000000000000005e+00 0.0000000000000000e+00 0.0000000000000000e+00
5.2000000000000002e+00 0.0000000000000000e+00 0.0000000000000000e+00
5.3000000000000007e+00 0.0000000000000000e+00 0.0000000000000000e+00
5.4000000000000004e+00 0.0000000000000000e+00 0.0000000000000000e+00
5.5000000000000000e+00 0.0000000000000000e+00 0.0000000000000000e+00
5.6000000000000005e+00 0.0000000000000000e+00 0.0000000000000000e+00
5.7000000000000002e+00 0.0000000000000000e+00 0.0000000000000000e+00
5.8000000000000007e+00 0.0000000000000000e+00 0.0000000000000000e+00
5.9000000000000004e+00 0.0000000000000000e+00 0.0000000000000000e+00
6.0000000000000000e+00 0.0000000000000000e+00 0.0000000000000000e+00
6.1000000000000005e+00 0.0000000000000000e+00 0.0000000000000000e+00
6.2000000000000002e+00 0.0000000000000000e+00 0.0000000000000000e+00
6.3000000000000007e+00 0.0000000000000000e+00 0.0000000000000000e+00
6.4000000000000004e+00 0.0000000000000000e+00 0.0000000000000000e+00
6.5000000000000000e+00 0.0000000000000000e+00 0.0000000000000000e+00
6.6000000000000005e+00 0.0000000000000000e+00 0.0000000000000000e+00
6.7000000000000002e+00 0.0000000000000000e+00 0.0000000000000000e+00
6.8000000000000007e+00 0.0000000000000000e+00 0.0000000000000000e+00
6.9000000000000004e+00 0.0000000000000000e+00 0.0000000000000000e+00
7.0000000000000000e+00 0.0000000000000000e+00 0.0000000000000000e+00
7.1000000000000005e+00 0.0000000000000000e+00 0.0000000000000000e+00
7.2000000000000002e+00 0.0000000000000000e+00 0.0000000000000000e+00
7.3000000000000007e+00 0.0000000000000000e+00 0.0000000000000000e+00
7.4000000000000004e+00 0.0000000000000000e+00 0.0000000000000000e+00
7.5000000000000000e+00 0.0000000000000000e+00 0.0000000000000000e+00
7.6000000000000005e+00 0.0000000000000000e+00 0.0000000000000000e+00
7.7000000000000002e+00 0.0000000000000000e+00 0.0000000000000000e+00
7.8000000000000007e+00 0.0000000000000000e+00 0.0000000000000000e+00
7.9000000000000004e+00 0.0000000000000000e+00 0.0000000000000000e+00
8.0000000000000000e+00 0.0000000000000000e+00 0.0000000000000000e+00
8.0999999999999996e+00 0.0000000000000000e+00 0.0000000000000000e+00
8.2000000000000011e+00 0.0000000000000000e+00 0.0000000000000000e+00
8.3000000000000007e+00 0.0000000000000000e+00 0.0000000000000000e+00
8.4000000000000004e+00 0.0000000000000000e+00 0.0000000000000000e+00
8.5000000000000000e+00 0.0000000000000000e+00 0.0000000000000000e+00
8.5999999999999996e+00 0.0000000000000000e+00 0.0000000000000000e+00
8.7000000000000011e+00 0.0000000000000000e+00 0.0000000000000000e+00
8.8000000000000007e+00 0.0000000000000000e+00 0.0000000000000000e+00
8.9000000000000004e+00 0.0000000000000000e+00 0.0000000000000000e+00
9.0000000000000000e+00 0.0000000000000000e+00 0.0000000000000000e+00
9.0999999999999996e+00 0.0000000000000000e+00 0.0000000000000000e+00
9.2000000000000011e+00 0.0000000000000000e+00 0.0000000000000000e+00
9.3000000000000007e+00 0.0000000000000000e+00 0.0000000000000000e+00
9.4000000000000004e+00 0.0000000000000000e+00 0.0000000000000000e+00
9.5000000000000000e+00 0.0000000000000000e+00 0.0000000000000000e+00
9.6000000000000014e+00 0.0000000000000000e+00 0.0000000000000000e+00
9.7000000000000011e+00 0.0000000000000000e+00 0.0000000000000000e+00
9.8000000000000007e+00 0.0000000000000000e+00 0.0000000000000000e+00
9.9000000000000004e+00 0.0000000000000000e+00 0.0000000000000000e+00
1.0000000000000000e+01 0.0000000000000000e+00 0.0000000000000000e+00

POINT_DATA 101

VECTORS velocity float
5.7560208268682302e+00 0.0000000000000000e+00 0.0000000000000000e+00
5.7566620132521740e+00 0.0000000000000000e+00 0.0000000000000000e+00
5.7572544752938590e+00 0.0000000000000000e+00 0.0000000000000000e+00
5.7578165311808274e+00 0.0000000000000000e+00 0.0000000000000000e+00
5.7583593991487305e+00 0.0000000000000000e+00 0.0000000000000000e+00
5.7588898916890416e+00 0.0000000000000000e+00 0.0000000000000000e+00
5.7594120871700518e+00 0.0000000000000000e+00 0.0000000000000000e+00
5.7599284078532662e+00 0.0000000000000000e+00 0.0000000000000000e+00
5.7604402763811660e+00 0.0000000000000000e+00 0.0000000000000000e+00
5.7609485184722038e+00 0.0000000000000000e+00 0.0000000000000000e+00
5.7614536052689793e+00 0.0000000000000000e+00 0.0000000000000000e+00
5.7619557987906092e+00 0.0000000000000000e+00 0.0000000000000000e+00
5.7624552388803307e+00 0.0000000000000000e+00 0.0000000000000000e+00
5.7629519943829122e+00 0.0000000000000000e+00 0.0000000000000000e+00
5.7634460931427505e+00 0.0000000000000000e+00 0.0000000000000000e+00
5.7639375394673040e+00 0.0000000000000000e+00 0.0000000000000000e+00
5.7644263242424829e+00 0.0000000000000000e+00 0.0000000000000000e+00
5.7649124307700736e+00 0.0000000000000000e+00 0.0000000000000000e+00
5.7653958380972554e+00 0.0000000000000000e+00 0.0000000000000000e+00
5.7658765229598767e+00 0.0000000000000000e+00 0.0000000000000000e+00
5.7663544607944592e+00 0.0000000000000000e+00 0.0000000000000000e+00
5.7668296265746832e+00 0.0000000000000000e+00 0.0000000000000000e+00
5.7673019945429624e+00 0.0000000000000000e+00 0.0000000000000000e+00
5.7677715387763833e+00 0.0000000000000000e+00 0.0000000000000000e+00
5.7682382342237890e+00 0.0000000000000000e+00 0.0000000000000000e+00
5.7687020556577391e+00 0.0000000000000000e+00 0.0000000000000000e+00
5.7691629779077278e+00 0.0000000000000000e+00 0.0000000000000000e+00
5.7696209759171149e+00 0.0000000000000000e+00 0.0000000000000000e+00
5.7700760247830241e+00 0.0000000000000000e+00 0.0000000000000000e+00
5.7705280997223189e+00 0.0000000000000000e+00 0.0000000000000000e+00
5.7709771761864088e+00 0.0000000000000000e+00 0.0000000000000000e+00
5.7714232295805408e+00 0.0000000000000000e+00 0.0000000000000000e+00
5.7718662361432287e+00 0.0000000000000000e+00 0.0000000000000000e+00
5.7723061704805820e+00 0.0000000000000000e+00 0.0000000000000000e+00
5.7727430120078793e+00 0.0000000000000000e+00 0.0000000000000000e+00
5.7731767409979335e+00 0.0000000000000000e+00 0.0000000000000000e+00
5.7736073363203975e+00 0.0000000000000000e+00 0.0000000000000000e+00
5.7740347598342829e+00 0.0000000000000000e+00 0.0000000000000000e+00
5.7744589752977289e+00 0.0000000000000000e+00 0.0000000000000000e+00
5.7748799798112440e+00 0.0000000000000000e+00 0.0000000000000000e+00
5.7752977537032768e+00 0.0000000000000000e+00 0.0000000000000000e+00
5.7757122706472153e+00 0.0000000000000000e+00 0.0000000000000000e+00
5.7761235072492232e+00 0.0000000000000000e+00 0.0000000000000000e+00
5.7765314408844208e+00 0.0000000000000000e+00 0.0000000000000000e+00
5.7769360472465374e+00 0.0000000000000000e+00 0.0000000000000000e+00
5.7773373047933596e+00 0.0000000000000000e+00 0.0000000000000000e+00
5.7777351877529277e+00 0.0000000000000000e+00 0.0000000000000000e+00
5.7781296800079920e+00 0.0000000000000000e+00 0.0000000000000000e+00
5.7785207609347049e+00 0.0000000000000000e+00 0.0000000000000000e+00
5.7789084073433949e+00 0.0000000000000000e+00 0.0000000000000000e+00
5.7792925984396097e+00 0.0000000000000000e+00 0.0000000000000000e+00
5.7796733127203019e+00 0.0000000000000000e+00 0.0000000000000000e+00
5.7800505281830645e+00 0.0000000000000000e+00 0.0000000000000000e+00
5.7804242246341664e+00 0.0000000000000000e+00 0.0000000000000000e+00
5.7807943816268796e+00 0.0000000000000000e+00 0.0000000000000000e+00
5.7811609787956106e+00 0.0000000000000000e+00 0.0000000000000000e+00
5.7815239960305274e+00 0.0000000000000000e+00 0.0000000000000000e+00
5.7818834131570807e+00 0.0000000000000000e+00 0.0000000000000000e+00
5.7822392101843674e+00 0.0000000000000000e+00 0.0000000000000000e+00
5.7825913674511584e+00 0.0000000000000000e+00 0.0000000000000000e+00
5.7829398654330397e+00 0.0000000000000000e+00 0.0000000000000000e+00
5.7832846846209414e+00 0.0000000000000000e+00 0.0000000000000000e+00
5.7836258059563326e+00 0.0000000000000000e+00 0.0000000000000000e+00
5.7839632105778866e+00 0.0000000000000000e+00 0.0000000000000000e+00
5.7842968793412268e+00 0.0000000000000000e+00 0.0000000000000000e+00
5.7846267934780267e+00 0.0000000000000000e+00 0.0000000000000000e+00
5.7849529344740613e+00 0.0000000000000000e+00 0.0000000000000000e+00
5.7852752840064881e+00 0.0000000000000000e+00 0.0000000000000000e+00
5.7855938239076359e+00 0.0000000000000000e+00 0.0000000000000000e+00
5.7859085361349401e+00 0.0000000000000000e+00 0.0000000000000000e+00
5.7862194028345542e+00 0.0000000000000000e+00 0.0000000000000000e+00
5.7865264062579014e+00 0.0000000000000000e+00 0.0000000000000000e+00
5.7868295290002782e+00 0.0000000000000000e+00 0.0000000000000000e+00
5.7871287533884059e+00 0.0000000000000000e+00 0.0000000000000000e+00
5.7874240604889620e+00 0.0000000000000000e+00 0.0000000000000000e+00
5.7877154325655447e+00 0.0000000000000000e+00 0.0000000000000000e+00
5.7880028539920367e+00 0.0000000000000000e+00 0.0000000000000000e+00
5.7882863102522757e+00 0.0000000000000000e+00 0.0000000000000000e+00
5.7885657838377060e+00 0.0000000000000000e+00 0.0000000000000000e+00
5.7888412575206232e+00 0.0000000000000000e+00 0.0000000000000000e+00
5.7891127191025529e+00 0.0000000000000000e+00 0.0000000000000000e+00
5.7893801515581726e+00 0.0000000000000000e+00 0.0000000000000000e+00
5.7896435372055883e+00 0.0000000000000000e+00 0.0000000000000000e+00
5.7899028588072481e+00 0.0000000000000000e+00 0.0000000000000000e+00
5.7901581045130150e+00 0.0000000000000000e+00 0.0000000000000000e+00
5.7904092579784781e+00 0.0000000000000000e+00 0.0000000000000000e+00
5.7906563166163334e+00 0.0000000000000000e+00 0.0000000000000000e+00
5.7908992343251073e+00 0.0000000000000000e+00 0.0000000000000000e+00
5.7911380015236285e+00 0.0000000000000000e+00 0.0000000000000000e+00
5.7913726438624531e+00 0.0000000000000000e+00 0.0000000000000000e+00
5.7916031228624378e+00 0.0000000000000000e+00 0.0000000000000000e+00
5.7918294166866691e+00 0.0000000000000000e+00 0.0000000000000000e+00
5.7920515148649869e+00 0.0000000000000000e+00 0.0000000000000000e+00
5.7922694048899466e+00 0.0000000000000000e+00 0.0000000000000000e+00
5.7924830770234994e+00 0.0000000000000000e+00 0.0000000000000000e+00
5.7926925015140531e+00 0.0000000000000000e+00 0.0000000000000000e+00
5.7928977268620772e+00 0.0000000000000000e+00 0.0000000000000000e+00
5.7930985344095731e+00 0.0000000000000000e+00 0.0000000000000000e+00
5.7932955498439620e+00 0.0000000000000000e+00 0.0000000000000000e+00
5.7934868156227060e+00 0.0000000000000000e+00 0.0000000000000000e+00
5.7936780814014499e+00 0.0000000000000000e+00 0.0000000000000000e+00


SCALARS pressure float
LOOKUP_TABLE default
3.3748158169995357e+01
3.3431098251023528e+01
3.3114038332051699e+01
3.2796725534871108e+01
3.2479008236092305e+01
3.2160797856126962e+01
3.1842044007376241e+01
3.1522719208246411e+01
3.1202809623575927e+01
3.0882309488989581e+01
3.0561217790508319e+01
3.0239536307755042e+01
2.9917268461127573e+01
2.9594418636098290e+01
2.9270991790515460e+01
2.8946993227415440e+01
2.8622428464205012e+01
2.8297303157575694e+01
2.7971623060469579e+01
2.7645393997537653e+01
2.7318621850889347e+01
2.6991312552290005e+01
2.6663472077402872e+01
2.6335106445747353e+01
2.6006221718058772e+01
2.5676823990193689e+01
2.5346919396139253e+01
2.5016514107504012e+01
2.4685614332862187e+01
2.4354226317117202e+01
2.4022356341193984e+01
2.3690010721124370e+01
2.3357195808904272e+01
2.3023917988130581e+01
2.2690183684267058e+01
2.2355999334874408e+01
2.2021371399606810e+01
2.1686306373502866e+01
2.1350810871439865e+01
2.1014891564079083e+01
2.0678554998518134e+01
2.0341807786025107e+01
2.0004656609072775e+01
1.9667108177365392e+01
1.9329169227580572e+01
1.8990846541201126e+01
1.8652146927649380e+01
1.8313077228025204e+01
1.7973644249829253e+01
1.7633854858987053e+01
1.7293715969760235e+01
1.6953234513437916e+01
1.6612417448373417e+01
1.6271271762136994e+01
1.5929804460236229e+01
1.5588022572451401e+01
1.5245933152606002e+01
1.4903543277525060e+01
1.4560860047673167e+01
1.4217890585398708e+01
1.3874642034272100e+01
1.3531121559632151e+01
1.3187336348606111e+01
1.2843293607978541e+01
1.2499000563964353e+01
1.2154464463560489e+01
1.1809692571901250e+01
1.1464692171737548e+01
1.1119470563195835e+01
1.0774035063689281e+01
1.0428393007631252e+01
1.0082551745569203e+01
9.7365186440032883e+00
9.3903010837745864e+00
9.0439064622735152e+00
8.6973421990814579e+00
8.3506157253890549e+00
8.0037344754619024e+00
7.6567058874817651e+00
7.3095374227941798e+00
6.9622365566435356e+00
6.6148107534710068e+00
6.2672675072756343e+00
5.9196143277157542e+00
5.5718587371868180e+00
5.2240082442097773e+00
4.8760703768951466e+00
4.5280526050497238e+00
4.1799626081449377e+00
3.8318079644388479e+00
3.4835960298641759e+00
3.1353344033216097e+00
2.7870307269088808e+00
2.4386925668141490e+00
2.0903274941135312e+00
1.7419430432786214e+00
1.3935469100731201e+00
1.0451462889699565e+00
6.9674992625346455e-01
3.4836199856314409e-01
0.0000000000000000e+00


SCALARS diameter float
LOOKUP_TABLE default
1.0030534152557218e+00
1.0030246620964218e+00
1.0029959101762149e+00
1.0029671366613602e+00
1.0029383278332611e+00
1.0029094755200920e+00
1.0028805754147800e+00
1.0028516250959625e+00
1.0028226231386237e+00
1.0027935690559637e+00
1.0027644625741294e+00
1.0027353038720386e+00
1.0027060932808216e+00
1.0026768312175032e+00
1.0026475181466934e+00
1.0026181545612691e+00
1.0025887409717904e+00
1.0025592778990955e+00
1.0025297658721501e+00
1.0025002054272261e+00
1.0024705971029328e+00
1.0024409414432449e+00
1.0024112389960693e+00
1.0023814905457928e+00
1.0023516963923829e+00
1.0023218570723511e+00
1.0022919731494364e+00
1.0022620451907782e+00
1.0022320737666839e+00
1.0022020594507450e+00
1.0021720028219927e+00
1.0021419044605060e+00
1.0021117649360032e+00
1.0020815848419875e+00
1.0020513647878757e+00
1.0020211030992867e+00
1.0019908017282042e+00
1.0019604624563834e+00
1.0019300936877931e+00
1.0018996853390623e+00
1.0018692378349894e+00
1.0018387545848060e+00
1.0018082361496630e+00
1.0017776832206593e+00
1.0017470965595157e+00
1.0017164767056768e+00
1.0016858240747588e+00
1.0016551395374371e+00
1.0016244233967928e+00
1.0015936766302129e+00
1.0015628996139523e+00
1.0015320928356044e+00
1.0015012575028288e+00
1.0014703938335803e+00
1.0014395024576543e+00
1.0014085840252536e+00
1.0013776391793758e+00
1.0013466685716688e+00
1.0013156729399664e+00
1.0012846529182078e+00
1.0012536091572350e+00
1.0012225422884566e+00
1.0011914529797565e+00
1.0011603416907398e+00
1.0011292092278556e+00
1.0010980562597791e+00
1.0010668834348744e+00
1.0010356914095708e+00
1.0010044808485985e+00
1.0009732524182018e+00
1.0009420067857995e+00
1.0009107446215444e+00
1.0008794665929153e+00
1.0008481733679973e+00
1.0008168660772860e+00
1.0007855456125669e+00
1.0007542120131987e+00
1.0007228655126552e+00
1.0006915067543527e+00
1.0006601377131137e+00
1.0006287572854282e+00
1.0005973667369275e+00
1.0005659672263447e+00
1.0005345602003484e+00
1.0005031451783497e+00
1.0004717220907480e+00
1.0004402915434412e+00
1.0004088551421328e+00
1.0003774266131902e+00
1.0003459757080821e+00
1.0003145259507560e+00
1.0002830757513756e+00
1.0002516229877796e+00
1.0002201683101368e+00
1.0001887126305538e+00
1.0001572566555716e+00
1.0001258010737277e+00
1.0000943466141508e+00
1.0000628956771385e+00
1.0000314469955722e+00
1.0000000016409554e+00


SCALARS iters float
LOOKUP_TABLE default
3.0000000000000000e+00
3.0000000000000000e+00
3.0000000000000000e+00
3.0000000000000000e+00
3.0000000000000000e+00
3.0000000000000000e+00
3.0000000000000000e+00
3.0000000000000000e+00
3.0000000000000000e+00
3.0000000000000000e+00
3.0000000000000000e+00
3.0000000000000000e+00
3.0000000000000000e+00
3.0000000000000000e+00
3.0000000000000000e+00
3.0000000000000000e+00
3.0000000000000000e+00
3.0000000000000000e+00
3.0000000000000000e+00
3.0000000000000000e+00
3.0000000000000000e+00
3.0000000000000000e+00
3.0000000000000000e+00
3.0000000000000000e+00
3.0000000000000000e+00
3.0000000000000000e+00
3.0000000000000000e+00
3.0000000000000000e+00
3.0000000000000000e+00
3.0000000000000000e+00
3.0000000000000000e+00
3.0000000000000000e+00
3.0000000000000000e+00
3.0000000000000000e+00
3.0000000000000000e+00
3.0000000000000000e+00
3.0000000000000000e+00
3.0000000000000000e+00
3.0000000000000000e+00
3.0000000000000000e+00
3.0000000000000000e+00
3.0000000000000000e+00
3.0000000000000000e+00
3.0000000000000000e+00
3.0000000000000000e+00
3.0000000000000000e+00
3.0000000000000000e+00
3.0000000000000000e+00
3.0000000000000000e+00
3.0000000000000000e+00
3.0000000000000000e+00
3.0000000000000000e+00
3.0000000000000000e+00
3.0000000000000000e+00
3.0000000000000000e+00
3.0000000000000000e+00
3.0000000000000000e+00
3.0000000000000000e+00
3.0000000000000000e+00
3.0000000000000000e+00
3.0000000000000000e+00
3.0000000000000000e+00
3.0000000000000000e+00
3.0000000000000000e+00
3.0000000000000000e+00
3.0000000000000000e+00
3.0000000000000000e+00
3.0000000000000000e+00
3.0000000000000000e+00
3.0000000000000000e+00
3.0000000000000000e+00
3.0000000000000000e+00
3.0000000000000000e+00
3.0000000000000000e+00
3.0000000000000000e+00
3.0000000000000000e+00
3.0000000000000000e+00
3.0000000000000000e+00
3.0000000000000000e+00
3.0000000000000000e+00
3.0000000000000000e+00
3.0000000000000000e+00
3.0000000000000000e+00
3.0000000000000000e+00
3.0000000000000000e+00
3.0000000000000000e+00
3.0000000000000000e+00
3.0000000000000000e+00
3.0000000000000000e+00
3.0000000000000000e+00
3.0000000000000000e+00
3.0000000000000000e+00
3.0000000000000000e+00
3.0000000000000000e+00
3.0000000000000000e+00
3.0000000000000000e+00
3.0000000000000000e+00
3.0000000000000000e+00
3.0000000000000000e+00
3.0000000000000000e+00
3.0000000000000000e+00


