# vtk DataFile Version 2.0

ASCII

DATASET UNSTRUCTURED_GRID

POINTS 101 float

0.0000000000000000e+00 0.0000000000000000e+00 0.0000000000000000e+00
1.0000000000000001e-01 0.0000000000000000e+00 0.0000000000000000e+00
2.0000000000000001e-01 0.0000000000000000e+00 0.0000000000000000e+00
3.0000000000000004e-01 0.0000000000000000e+00 0.0000000000000000e+00
4.0000000000000002e-01 0.0000000000000000e+00 0.0000000000000000e+00
5.0000000000000000e-01 0.0000000000000000e+00 0.0000000000000000e+00
6.0000000000000009e-01 0.0000000000000000e+00 0.0000000000000000e+00
7.0000000000000007e-01 0.0000000000000000e+00 0.0000000000000000e+00
8.0000000000000004e-01 0.0000000000000000e+00 0.0000000000000000e+00
9.0000000000000002e-01 0.0000000000000000e+00 0.0000000000000000e+00
1.0000000000000000e+00 0.0000000000000000e+00 0.0000000000000000e+00
1.1000000000000001e+00 0.0000000000000000e+00 0.0000000000000000e+00
1.2000000000000002e+00 0.0000000000000000e+00 0.0000000000000000e+00
1.3000000000000000e+00 0.0000000000000000e+00 0.0000000000000000e+00
1.4000000000000001e+00 0.0000000000000000e+00 0.0000000000000000e+00
1.5000000000000000e+00 0.0000000000000000e+00 0.0000000000000000e+00
1.6000000000000001e+00 0.0000000000000000e+00 0.0000000000000000e+00
1.7000000000000002e+00 0.0000000000000000e+00 0.0000000000000000e+00
1.8000000000000000e+00 0.0000000000000000e+00 0.0000000000000000e+00
1.9000000000000001e+00 0.0000000000000000e+00 0.0000000000000000e+00
2.0000000000000000e+00 0.0000000000000000e+00 0.0000000000000000e+00
2.1000000000000001e+00 0.0000000000000000e+00 0.0000000000000000e+00
2.2000000000000002e+00 0.0000000000000000e+00 0.0000000000000000e+00
2.3000000000000003e+00 0.0000000000000000e+00 0.0000000000000000e+00
2.4000000000000004e+00 0.0000000000000000e+00 0.0000000000000000e+00
2.5000000000000000e+00 0.0000000000000000e+00 0.0000000000000000e+00
2.6000000000000001e+00 0.0000000000000000e+00 0.0000000000000000e+00
2.7000000000000002e+00 0.0000000000000000e+00 0.0000000000000000e+00
2.8000000000000003e+00 0.0000000000000000e+00 0.0000000000000000e+00
2.9000000000000004e+00 0.0000000000000000e+00 0.0000000000000000e+00
3.0000000000000000e+00 0.0000000000000000e+00 0.0000000000000000e+00
3.1000000000000001e+00 0.0000000000000000e+00 0.0000000000000000e+00
3.2000000000000002e+00 0.0000000000000000e+00 0.0000000000000000e+00
3.3000000000000003e+00 0.0000000000000000e+00 0.0000000000000000e+00
3.4000000000000004e+00 0.0000000000000000e+00 0.0000000000000000e+00
3.5000000000000000e+00 0.0000000000000000e+00 0.0000000000000000e+00
3.6000000000000001e+00 0.0000000000000000e+00 0.0000000000000000e+00
3.7000000000000002e+00 0.0000000000000000e+00 0.0000000000000000e+00
3.8000000000000003e+00 0.0000000000000000e+00 0.0000000000000000e+00
3.9000000000000004e+00 0.0000000000000000e+00 0.0000000000000000e+00
4.0000000000000000e+00 0.0000000000000000e+00 0.0000000000000000e+00
4.1000000000000005e+00 0.0000000000000000e+00 0.0000000000000000e+00
4.2000000000000002e+00 0.0000000000000000e+00 0.0000000000000000e+00
4.2999999999999998e+00 0.0000000000000000e+00 0.0000000000000000e+00
4.4000000000000004e+00 0.0000000000000000e+00 0.0000000000000000e+00
4.5000000000000000e+00 0.0000000000000000e+00 0.0000000000000000e+00
4.6000000000000005e+00 0.0000000000000000e+00 0.0000000000000000e+00
4.7000000000000002e+00 0.0000000000000000e+00 0.0000000000000000e+00
4.8000000000000007e+00 0.0000000000000000e+00 0.0000000000000000e+00
4.9000000000000004e+00 0.0000000000000000e+00 0.0000000000000000e+00
5.0000000000000000e+00 0.0000000000000000e+00 0.0000000000000000e+00
5.1000000000000005e+00 0.0000000000000000e+00 0.0000000000000000e+00
5.2000000000000002e+00 0.0000000000000000e+00 0.0000000000000000e+00
5.3000000000000007e+00 0.0000000000000000e+00 0.0000000000000000e+00
5.4000000000000004e+00 0.0000000000000000e+00 0.0000000000000000e+00
5.5000000000000000e+00 0.0000000000000000e+00 0.0000000000000000e+00
5.6000000000000005e+00 0.0000000000000000e+00 0.0000000000000000e+00
5.7000000000000002e+00 0.0000000000000000e+00 0.0000000000000000e+00
5.8000000000000007e+00 0.0000000000000000e+00 0.0000000000000000e+00
5.9000000000000004e+00 0.0000000000000000e+00 0.0000000000000000e+00
6.0000000000000000e+00 0.0000000000000000e+00 0.0000000000000000e+00
6.1000000000000005e+00 0.0000000000000000e+00 0.0000000000000000e+00
6.2000000000000002e+00 0.0000000000000000e+00 0.0000000000000000e+00
6.3000000000000007e+00 0.0000000000000000e+00 0.0000000000000000e+00
6.4000000000000004e+00 0.0000000000000000e+00 0.0000000000000000e+00
6.5000000000000000e+00 0.0000000000000000e+00 0.0000000000000000e+00
6.6000000000000005e+00 0.0000000000000000e+00 0.0000000000000000e+00
6.7000000000000002e+00 0.0000000000000000e+00 0.0000000000000000e+00
6.8000000000000007e+00 0.0000000000000000e+00 0.0000000000000000e+00
6.9000000000000004e+00 0.0000000000000000e+00 0.0000000000000000e+00
7.0000000000000000e+00 0.0000000000000000e+00 0.0000000000000000e+00
7.1000000000000005e+00 0.0000000000000000e+00 0.0000000000000000e+00
7.2000000000000002e+00 0.0000000000000000e+00 0.0000000000000000e+00
7.3000000000000007e+00 0.0000000000000000e+00 0.0000000000000000e+00
7.4000000000000004e+00 0.0000000000000000e+00 0.0000000000000000e+00
7.5000000000000000e+00 0.0000000000000000e+00 0.0000000000000000e+00
7.6000000000000005e+00 0.0000000000000000e+00 0.0000000000000000e+00
7.7000000000000002e+00 0.0000000000000000e+00 0.0000000000000000e+00
7.8000000000000007e+00 0.0000000000000000e+00 0.0000000000000000e+00
7.9000000000000004e+00 0.0000000000000000e+00 0.0000000000000000e+00
8.0000000000000000e+00 0.0000000000000000e+00 0.0000000000000000e+00
8.0999999999999996e+00 0.0000000000000000e+00 0.0000000000000000e+00
8.2000000000000011e+00 0.0000000000000000e+00 0.0000000000000000e+00
8.3000000000000007e+00 0.0000000000000000e+00 0.0000000000000000e+00
8.4000000000000004e+00 0.0000000000000000e+00 0.0000000000000000e+00
8.5000000000000000e+00 0.0000000000000000e+00 0.0000000000000000e+00
8.5999999999999996e+00 0.0000000000000000e+00 0.0000000000000000e+00
8.7000000000000011e+00 0.0000000000000000e+00 0.0000000000000000e+00
8.8000000000000007e+00 0.0000000000000000e+00 0.0000000000000000e+00
8.9000000000000004e+00 0.0000000000000000e+00 0.0000000000000000e+00
9.0000000000000000e+00 0.0000000000000000e+00 0.0000000000000000e+00
9.0999999999999996e+00 0.0000000000000000e+00 0.0000000000000000e+00
9.2000000000000011e+00 0.0000000000000000e+00 0.0000000000000000e+00
9.3000000000000007e+00 0.0000000000000000e+00 0.0000000000000000e+00
9.4000000000000004e+00 0.0000000000000000e+00 0.0000000000000000e+00
9.5000000000000000e+00 0.0000000000000000e+00 0.0000000000000000e+00
9.6000000000000014e+00 0.0000000000000000e+00 0.0000000000000000e+00
9.7000000000000011e+00 0.0000000000000000e+00 0.0000000000000000e+00
9.8000000000000007e+00 0.0000000000000000e+00 0.0000000000000000e+00
9.9000000000000004e+00 0.0000000000000000e+00 0.0000000000000000e+00
1.0000000000000000e+01 0.0000000000000000e+00 0.0000000000000000e+00

POINT_DATA 101

VECTORS velocity float
6.6439834943628533e+00 0.0000000000000000e+00 0.0000000000000000e+00
6.6442158416519765e+00 0.0000000000000000e+00 0.0000000000000000e+00
6.6444494823636422e+00 0.0000000000000000e+00 0.0000000000000000e+00
6.6446792884951593e+00 0.0000000000000000e+00 0.0000000000000000e+00
6.6449035261376661e+00 0.0000000000000000e+00 0.0000000000000000e+00
6.6451268945639432e+00 0.0000000000000000e+00 0.0000000000000000e+00
6.6453546220647022e+00 0.0000000000000000e+00 0.0000000000000000e+00
6.6455823630115969e+00 0.0000000000000000e+00 0.0000000000000000e+00
6.6458060904153164e+00 0.0000000000000000e+00 0.0000000000000000e+00
6.6460273733071089e+00 0.0000000000000000e+00 0.0000000000000000e+00
6.6462467071357398e+00 0.0000000000000000e+00 0.0000000000000000e+00
6.6464640541002602e+00 0.0000000000000000e+00 0.0000000000000000e+00
6.6466821290898128e+00 0.0000000000000000e+00 0.0000000000000000e+00
6.6469048613241526e+00 0.0000000000000000e+00 0.0000000000000000e+00
6.6471306707378330e+00 0.0000000000000000e+00 0.0000000000000000e+00
6.6473573829831869e+00 0.0000000000000000e+00 0.0000000000000000e+00
6.6475774595477413e+00 0.0000000000000000e+00 0.0000000000000000e+00
6.6477882933914900e+00 0.0000000000000000e+00 0.0000000000000000e+00
6.6479988344357075e+00 0.0000000000000000e+00 0.0000000000000000e+00
6.6482121477395975e+00 0.0000000000000000e+00 0.0000000000000000e+00
6.6484254422423907e+00 0.0000000000000000e+00 0.0000000000000000e+00
6.6486363424139281e+00 0.0000000000000000e+00 0.0000000000000000e+00
6.6488446995372650e+00 0.0000000000000000e+00 0.0000000000000000e+00
6.6490509415284844e+00 0.0000000000000000e+00 0.0000000000000000e+00
6.6492639635246036e+00 0.0000000000000000e+00 0.0000000000000000e+00
6.6494793806271213e+00 0.0000000000000000e+00 0.0000000000000000e+00
6.6496885921823923e+00 0.0000000000000000e+00 0.0000000000000000e+00
6.6498954833604857e+00 0.0000000000000000e+00 0.0000000000000000e+00
6.6501008834982258e+00 0.0000000000000000e+00 0.0000000000000000e+00
6.6503039790520555e+00 0.0000000000000000e+00 0.0000000000000000e+00
6.6505044216787610e+00 0.0000000000000000e+00 0.0000000000000000e+00
6.6507030153175659e+00 0.0000000000000000e+00 0.0000000000000000e+00
6.6509010134186397e+00 0.0000000000000000e+00 0.0000000000000000e+00
6.6510996942150351e+00 0.0000000000000000e+00 0.0000000000000000e+00
6.6512983913067103e+00 0.0000000000000000e+00 0.0000000000000000e+00
6.6514965380688036e+00 0.0000000000000000e+00 0.0000000000000000e+00
6.6516939713608316e+00 0.0000000000000000e+00 0.0000000000000000e+00
6.6518905270310400e+00 0.0000000000000000e+00 0.0000000000000000e+00
6.6520862684873352e+00 0.0000000000000000e+00 0.0000000000000000e+00
6.6522807244923774e+00 0.0000000000000000e+00 0.0000000000000000e+00
6.6524736156635571e+00 0.0000000000000000e+00 0.0000000000000000e+00
6.6526653339507389e+00 0.0000000000000000e+00 0.0000000000000000e+00
6.6528559594963301e+00 0.0000000000000000e+00 0.0000000000000000e+00
6.6530455424945734e+00 0.0000000000000000e+00 0.0000000000000000e+00
6.6532341150382450e+00 0.0000000000000000e+00 0.0000000000000000e+00
6.6534216972785289e+00 0.0000000000000000e+00 0.0000000000000000e+00
6.6536083026324855e+00 0.0000000000000000e+00 0.0000000000000000e+00
6.6537939394083097e+00 0.0000000000000000e+00 0.0000000000000000e+00
6.6539786144273956e+00 0.0000000000000000e+00 0.0000000000000000e+00
6.6541623329053570e+00 0.0000000000000000e+00 0.0000000000000000e+00
6.6543450983453658e+00 0.0000000000000000e+00 0.0000000000000000e+00
6.6545269149756701e+00 0.0000000000000000e+00 0.0000000000000000e+00
6.6547077849046739e+00 0.0000000000000000e+00 0.0000000000000000e+00
6.6548877102872277e+00 0.0000000000000000e+00 0.0000000000000000e+00
6.6550666940219934e+00 0.0000000000000000e+00 0.0000000000000000e+00
6.6552447382532671e+00 0.0000000000000000e+00 0.0000000000000000e+00
6.6554218449787053e+00 0.0000000000000000e+00 0.0000000000000000e+00
6.6555980166163016e+00 0.0000000000000000e+00 0.0000000000000000e+00
6.6557732555621287e+00 0.0000000000000000e+00 0.0000000000000000e+00
6.6559475634113703e+00 0.0000000000000000e+00 0.0000000000000000e+00
6.6561209417719995e+00 0.0000000000000000e+00 0.0000000000000000e+00
6.6562933935332476e+00 0.0000000000000000e+00 0.0000000000000000e+00
6.6564649210034323e+00 0.0000000000000000e+00 0.0000000000000000e+00
6.6566355256131624e+00 0.0000000000000000e+00 0.0000000000000000e+00
6.6568052092847765e+00 0.0000000000000000e+00 0.0000000000000000e+00
6.6569739738849067e+00 0.0000000000000000e+00 0.0000000000000000e+00
6.6571418212242559e+00 0.0000000000000000e+00 0.0000000000000000e+00
6.6573087532308133e+00 0.0000000000000000e+00 0.0000000000000000e+00
6.6574747717024820e+00 0.0000000000000000e+00 0.0000000000000000e+00
6.6576398783644208e+00 0.0000000000000000e+00 0.0000000000000000e+00
6.6578040749569913e+00 0.0000000000000000e+00 0.0000000000000000e+00
6.6579673633929515e+00 0.0000000000000000e+00 0.0000000000000000e+00
6.6581297454497745e+00 0.0000000000000000e+00 0.0000000000000000e+00
6.6582912226562634e+00 0.0000000000000000e+00 0.0000000000000000e+00
6.6584517967469461e+00 0.0000000000000000e+00 0.0000000000000000e+00
6.6586114690719542e+00 0.0000000000000000e+00 0.0000000000000000e+00
6.6587702411486509e+00 0.0000000000000000e+00 0.0000000000000000e+00
6.6589281144823005e+00 0.0000000000000000e+00 0.0000000000000000e+00
6.6590850908119537e+00 0.0000000000000000e+00 0.0000000000000000e+00
6.6592411716317477e+00 0.0000000000000000e+00 0.0000000000000000e+00
6.6593963587249005e+00 0.0000000000000000e+00 0.0000000000000000e+00
6.6595506537444926e+00 0.0000000000000000e+00 0.0000000000000000e+00
6.6597040579706315e+00 0.0000000000000000e+00 0.0000000000000000e+00
6.6598565714772580e+00 0.0000000000000000e+00 0.0000000000000000e+00
6.6600081959915443e+00 0.0000000000000000e+00 0.0000000000000000e+00
6.6601589354305473e+00 0.0000000000000000e+00 0.0000000000000000e+00
6.6603087917679282e+00 0.0000000000000000e+00 0.0000000000000000e+00
6.6604577621504477e+00 0.0000000000000000e+00 0.0000000000000000e+00
6.6606058471986191e+00 0.0000000000000000e+00 0.0000000000000000e+00
6.6607530483429915e+00 0.0000000000000000e+00 0.0000000000000000e+00
6.6608993708150797e+00 0.0000000000000000e+00 0.0000000000000000e+00
6.6610448170415069e+00 0.0000000000000000e+00 0.0000000000000000e+00
6.6611893853377264e+00 0.0000000000000000e+00 0.0000000000000000e+00
6.6613330747884296e+00 0.0000000000000000e+00 0.0000000000000000e+00
6.6614758918362629e+00 0.0000000000000000e+00 0.0000000000000000e+00
6.6616178240857389e+00 0.0000000000000000e+00 0.0000000000000000e+00
6.6617589064174965e+00 0.0000000000000000e+00 0.0000000000000000e+00
6.6618990559084139e+00 0.0000000000000000e+00 0.0000000000000000e+00
6.6620384782866804e+00 0.0000000000000000e+00 0.0000000000000000e+00
6.6621766733405394e+00 0.0000000000000000e+00 0.0000000000000000e+00
6.6623148683943985e+00 0.0000000000000000e+00 0.0000000000000000e+00


SCALARS pressure float
LOOKUP_TABLE default
2.2809383485530368e+01
2.2577911819964406e+01
2.2346440154398440e+01
2.2115019223591098e+01
2.1883689369628453e+01
2.1652471235662286e+01
2.1421349801162194e+01
2.1190296712923356e+01
2.0959322976111117e+01
2.0728449875183912e+01
2.0497676225148609e+01
2.0266998769968588e+01
2.0036416049626759e+01
1.9805914407369833e+01
1.9575471006253768e+01
1.9345085590257636e+01
1.9114767312300781e+01
1.8884553092276821e+01
1.8654466223171791e+01
1.8424472897200395e+01
1.8194548531018619e+01
1.7964698063975320e+01
1.7734933289647675e+01
1.7505257740121518e+01
1.7275669885805790e+01
1.7046129023768472e+01
1.6816643295135091e+01
1.6587253149384093e+01
1.6357952716353257e+01
1.6128735803265332e+01
1.5899603650436692e+01
1.5670557563344294e+01
1.5441593650034083e+01
1.5212704363760505e+01
1.4983881193823336e+01
1.4755124195127747e+01
1.4526435547780647e+01
1.4297816230575684e+01
1.4069266846007162e+01
1.3840786836737902e+01
1.3612377701138346e+01
1.3384040519580475e+01
1.3155773238138147e+01
1.2927574249263907e+01
1.2699442214823113e+01
1.2471375957168789e+01
1.2243374398174419e+01
1.2015436516864064e+01
1.1787561328653821e+01
1.1559747862889969e+01
1.1331995157106217e+01
1.1104302255960258e+01
1.0876668199858514e+01
1.0649092034513833e+01
1.0421572804067530e+01
1.0194109545879028e+01
9.9667012957761312e+00
9.7393470870138970e+00
9.5120459475888204e+00
9.2847969012429736e+00
9.0575989714747660e+00
8.8304511790914297e+00
8.6033525356639142e+00
8.3763020500772942e+00
8.1492987320381989e+00
7.9223415869503606e+00
7.6954296168487799e+00
7.4685618207404643e+00
7.2417371939817912e+00
7.0149547292581245e+00
6.7882134166660189e+00
6.5615122433669386e+00
6.3348501927745549e+00
6.1082262457474199e+00
5.8816393815753703e+00
5.6550885762366354e+00
5.4285728046811954e+00
5.2020910390482298e+00
4.9756422489655616e+00
4.7492254004945034e+00
4.5228394578184670e+00
4.2964833817869792e+00
4.0701561314230936e+00
3.8438566653291679e+00
3.6175839460263344e+00
3.3913369281826582e+00
3.1651145529770601e+00
2.9389157653314602e+00
2.7127395319151564e+00
2.4865848080626565e+00
2.2604505414918972e+00
2.0343356591477044e+00
1.8082390936218804e+00
1.5821597968382719e+00
1.3560967213094184e+00
1.1300487882811858e+00
9.0401498604488806e-01
6.7799412919883173e-01
4.5198545821634828e-01
2.2598717525747794e-01
0.0000000000000000e+00


SCALARS diameter float
LOOKUP_TABLE default
1.0020643744376050e+00
1.0020409489388549e+00
1.0020183916570684e+00
1.0019971851068417e+00
1.0019774077551349e+00
1.0019577276931735e+00
1.0019364540047693e+00
1.0019145336191153e+00
1.0018940045657201e+00
1.0018737029448286e+00
1.0018535481738444e+00
1.0018334812261140e+00
1.0018132428331754e+00
1.0017915779492674e+00
1.0017689873462345e+00
1.0017464782183798e+00
1.0017249200606340e+00
1.0017061924464015e+00
1.0016868076759551e+00
1.0016659438192734e+00
1.0016447599874225e+00
1.0016241445191219e+00
1.0016039246549240e+00
1.0015839266215099e+00
1.0015627197977224e+00
1.0015392727672683e+00
1.0015185247327820e+00
1.0014978429310983e+00
1.0014771664694213e+00
1.0014565405300446e+00
1.0014364164586107e+00
1.0014162943870331e+00
1.0013961416391248e+00
1.0013754567776996e+00
1.0013545763915730e+00
1.0013337033913687e+00
1.0013128369503992e+00
1.0012919764620891e+00
1.0012711224092286e+00
1.0012502867649649e+00
1.0012296609029956e+00
1.0012090397332258e+00
1.0011884235663133e+00
1.0011678125639449e+00
1.0011472066551863e+00
1.0011266058279666e+00
1.0011060101460678e+00
1.0010854194990313e+00
1.0010648341227764e+00
1.0010442534082360e+00
1.0010236778169896e+00
1.0010031068024305e+00
1.0009825405350330e+00
1.0009619791861255e+00
1.0009414225008475e+00
1.0009208704202295e+00
1.0009003230374429e+00
1.0008797802093239e+00
1.0008592418058020e+00
1.0008387078595460e+00
1.0008181785194978e+00
1.0007976535075385e+00
1.0007771325734145e+00
1.0007566159357690e+00
1.0007361035335214e+00
1.0007155952821780e+00
1.0006950911666912e+00
1.0006745910960320e+00
1.0006540950157468e+00
1.0006336028954690e+00
1.0006131146809905e+00
1.0005926302885748e+00
1.0005721496151971e+00
1.0005516726790751e+00
1.0005311994134185e+00
1.0005107297719513e+00
1.0004902638100011e+00
1.0004698013510740e+00
1.0004493424359744e+00
1.0004288868156026e+00
1.0004084346319495e+00
1.0003879855110247e+00
1.0003675396930811e+00
1.0003470971218946e+00
1.0003266581284431e+00
1.0003062216019381e+00
1.0002857875078905e+00
1.0002653564990478e+00
1.0002449294751907e+00
1.0002245052138576e+00
1.0002040838878592e+00
1.0001836635775256e+00
1.0001632465442720e+00
1.0001428320692396e+00
1.0001224203227874e+00
1.0001020109460119e+00
1.0000816040456368e+00
1.0000611994938109e+00
1.0000407974575252e+00
1.0000203976639090e+00
9.9999999946218154e-01


SCALARS iters float
LOOKUP_TABLE default
3.0000000000000000e+00
3.0000000000000000e+00
3.0000000000000000e+00
3.0000000000000000e+00
3.0000000000000000e+00
3.0000000000000000e+00
3.0000000000000000e+00
3.0000000000000000e+00
3.0000000000000000e+00
3.0000000000000000e+00
3.0000000000000000e+00
3.0000000000000000e+00
3.0000000000000000e+00
3.0000000000000000e+00
3.0000000000000000e+00
3.0000000000000000e+00
3.0000000000000000e+00
3.0000000000000000e+00
3.0000000000000000e+00
3.0000000000000000e+00
3.0000000000000000e+00
3.0000000000000000e+00
3.0000000000000000e+00
3.0000000000000000e+00
3.0000000000000000e+00
3.0000000000000000e+00
3.0000000000000000e+00
3.0000000000000000e+00
3.0000000000000000e+00
3.0000000000000000e+00
3.0000000000000000e+00
3.0000000000000000e+00
3.0000000000000000e+00
3.0000000000000000e+00
3.0000000000000000e+00
3.0000000000000000e+00
3.0000000000000000e+00
3.0000000000000000e+00
3.0000000000000000e+00
3.0000000000000000e+00
3.0000000000000000e+00
3.0000000000000000e+00
3.0000000000000000e+00
3.0000000000000000e+00
3.0000000000000000e+00
3.0000000000000000e+00
3.0000000000000000e+00
3.0000000000000000e+00
3.0000000000000000e+00
3.0000000000000000e+00
3.0000000000000000e+00
3.0000000000000000e+00
3.0000000000000000e+00
3.0000000000000000e+00
3.0000000000000000e+00
3.0000000000000000e+00
3.0000000000000000e+00
3.0000000000000000e+00
3.0000000000000000e+00
3.0000000000000000e+00
3.0000000000000000e+00
3.0000000000000000e+00
3.0000000000000000e+00
3.0000000000000000e+00
3.0000000000000000e+00
3.0000000000000000e+00
3.0000000000000000e+00
3.0000000000000000e+00
3.0000000000000000e+00
3.0000000000000000e+00
3.0000000000000000e+00
3.0000000000000000e+00
3.0000000000000000e+00
3.0000000000000000e+00
3.0000000000000000e+00
3.0000000000000000e+00
3.0000000000000000e+00
3.0000000000000000e+00
3.0000000000000000e+00
3.0000000000000000e+00
3.0000000000000000e+00
3.0000000000000000e+00
3.0000000000000000e+00
3.0000000000000000e+00
3.0000000000000000e+00
3.0000000000000000e+00
3.0000000000000000e+00
3.0000000000000000e+00
3.0000000000000000e+00
3.0000000000000000e+00
3.0000000000000000e+00
3.0000000000000000e+00
3.0000000000000000e+00
3.0000000000000000e+00
3.0000000000000000e+00
3.0000000000000000e+00
3.0000000000000000e+00
3.0000000000000000e+00
3.0000000000000000e+00
3.0000000000000000e+00
3.0000000000000000e+00


