# vtk DataFile Version 2.0

ASCII

DATASET UNSTRUCTURED_GRID

POINTS 101 float

0.0000000000000000e+00 0.0000000000000000e+00 0.0000000000000000e+00
1.0000000000000001e-01 0.0000000000000000e+00 0.0000000000000000e+00
2.0000000000000001e-01 0.0000000000000000e+00 0.0000000000000000e+00
3.0000000000000004e-01 0.0000000000000000e+00 0.0000000000000000e+00
4.0000000000000002e-01 0.0000000000000000e+00 0.0000000000000000e+00
5.0000000000000000e-01 0.0000000000000000e+00 0.0000000000000000e+00
6.0000000000000009e-01 0.0000000000000000e+00 0.0000000000000000e+00
7.0000000000000007e-01 0.0000000000000000e+00 0.0000000000000000e+00
8.0000000000000004e-01 0.0000000000000000e+00 0.0000000000000000e+00
9.0000000000000002e-01 0.0000000000000000e+00 0.0000000000000000e+00
1.0000000000000000e+00 0.0000000000000000e+00 0.0000000000000000e+00
1.1000000000000001e+00 0.0000000000000000e+00 0.0000000000000000e+00
1.2000000000000002e+00 0.0000000000000000e+00 0.0000000000000000e+00
1.3000000000000000e+00 0.0000000000000000e+00 0.0000000000000000e+00
1.4000000000000001e+00 0.0000000000000000e+00 0.0000000000000000e+00
1.5000000000000000e+00 0.0000000000000000e+00 0.0000000000000000e+00
1.6000000000000001e+00 0.0000000000000000e+00 0.0000000000000000e+00
1.7000000000000002e+00 0.0000000000000000e+00 0.0000000000000000e+00
1.8000000000000000e+00 0.0000000000000000e+00 0.0000000000000000e+00
1.9000000000000001e+00 0.0000000000000000e+00 0.0000000000000000e+00
2.0000000000000000e+00 0.0000000000000000e+00 0.0000000000000000e+00
2.1000000000000001e+00 0.0000000000000000e+00 0.0000000000000000e+00
2.2000000000000002e+00 0.0000000000000000e+00 0.0000000000000000e+00
2.3000000000000003e+00 0.0000000000000000e+00 0.0000000000000000e+00
2.4000000000000004e+00 0.0000000000000000e+00 0.0000000000000000e+00
2.5000000000000000e+00 0.0000000000000000e+00 0.0000000000000000e+00
2.6000000000000001e+00 0.0000000000000000e+00 0.0000000000000000e+00
2.7000000000000002e+00 0.0000000000000000e+00 0.0000000000000000e+00
2.8000000000000003e+00 0.0000000000000000e+00 0.0000000000000000e+00
2.9000000000000004e+00 0.0000000000000000e+00 0.0000000000000000e+00
3.0000000000000000e+00 0.0000000000000000e+00 0.0000000000000000e+00
3.1000000000000001e+00 0.0000000000000000e+00 0.0000000000000000e+00
3.2000000000000002e+00 0.0000000000000000e+00 0.0000000000000000e+00
3.3000000000000003e+00 0.0000000000000000e+00 0.0000000000000000e+00
3.4000000000000004e+00 0.0000000000000000e+00 0.0000000000000000e+00
3.5000000000000000e+00 0.0000000000000000e+00 0.0000000000000000e+00
3.6000000000000001e+00 0.0000000000000000e+00 0.0000000000000000e+00
3.7000000000000002e+00 0.0000000000000000e+00 0.0000000000000000e+00
3.8000000000000003e+00 0.0000000000000000e+00 0.0000000000000000e+00
3.9000000000000004e+00 0.0000000000000000e+00 0.0000000000000000e+00
4.0000000000000000e+00 0.0000000000000000e+00 0.0000000000000000e+00
4.1000000000000005e+00 0.0000000000000000e+00 0.0000000000000000e+00
4.2000000000000002e+00 0.0000000000000000e+00 0.0000000000000000e+00
4.2999999999999998e+00 0.0000000000000000e+00 0.0000000000000000e+00
4.4000000000000004e+00 0.0000000000000000e+00 0.0000000000000000e+00
4.5000000000000000e+00 0.0000000000000000e+00 0.0000000000000000e+00
4.6000000000000005e+00 0.0000000000000000e+00 0.0000000000000000e+00
4.7000000000000002e+00 0.0000000000000000e+00 0.0000000000000000e+00
4.8000000000000007e+00 0.0000000000000000e+00 0.0000000000000000e+00
4.9000000000000004e+00 0.0000000000000000e+00 0.0000000000000000e+00
5.0000000000000000e+00 0.0000000000000000e+00 0.0000000000000000e+00
5.1000000000000005e+00 0.0000000000000000e+00 0.0000000000000000e+00
5.2000000000000002e+00 0.0000000000000000e+00 0.0000000000000000e+00
5.3000000000000007e+00 0.0000000000000000e+00 0.0000000000000000e+00
5.4000000000000004e+00 0.0000000000000000e+00 0.0000000000000000e+00
5.5000000000000000e+00 0.0000000000000000e+00 0.0000000000000000e+00
5.6000000000000005e+00 0.0000000000000000e+00 0.0000000000000000e+00
5.7000000000000002e+00 0.0000000000000000e+00 0.0000000000000000e+00
5.8000000000000007e+00 0.0000000000000000e+00 0.0000000000000000e+00
5.9000000000000004e+00 0.0000000000000000e+00 0.0000000000000000e+00
6.0000000000000000e+00 0.0000000000000000e+00 0.0000000000000000e+00
6.1000000000000005e+00 0.0000000000000000e+00 0.0000000000000000e+00
6.2000000000000002e+00 0.0000000000000000e+00 0.0000000000000000e+00
6.3000000000000007e+00 0.0000000000000000e+00 0.0000000000000000e+00
6.4000000000000004e+00 0.0000000000000000e+00 0.0000000000000000e+00
6.5000000000000000e+00 0.0000000000000000e+00 0.0000000000000000e+00
6.6000000000000005e+00 0.0000000000000000e+00 0.0000000000000000e+00
6.7000000000000002e+00 0.0000000000000000e+00 0.0000000000000000e+00
6.8000000000000007e+00 0.0000000000000000e+00 0.0000000000000000e+00
6.9000000000000004e+00 0.0000000000000000e+00 0.0000000000000000e+00
7.0000000000000000e+00 0.0000000000000000e+00 0.0000000000000000e+00
7.1000000000000005e+00 0.0000000000000000e+00 0.0000000000000000e+00
7.2000000000000002e+00 0.0000000000000000e+00 0.0000000000000000e+00
7.3000000000000007e+00 0.0000000000000000e+00 0.0000000000000000e+00
7.4000000000000004e+00 0.0000000000000000e+00 0.0000000000000000e+00
7.5000000000000000e+00 0.0000000000000000e+00 0.0000000000000000e+00
7.6000000000000005e+00 0.0000000000000000e+00 0.0000000000000000e+00
7.7000000000000002e+00 0.0000000000000000e+00 0.0000000000000000e+00
7.8000000000000007e+00 0.0000000000000000e+00 0.0000000000000000e+00
7.9000000000000004e+00 0.0000000000000000e+00 0.0000000000000000e+00
8.0000000000000000e+00 0.0000000000000000e+00 0.0000000000000000e+00
8.0999999999999996e+00 0.0000000000000000e+00 0.0000000000000000e+00
8.2000000000000011e+00 0.0000000000000000e+00 0.0000000000000000e+00
8.3000000000000007e+00 0.0000000000000000e+00 0.0000000000000000e+00
8.4000000000000004e+00 0.0000000000000000e+00 0.0000000000000000e+00
8.5000000000000000e+00 0.0000000000000000e+00 0.0000000000000000e+00
8.5999999999999996e+00 0.0000000000000000e+00 0.0000000000000000e+00
8.7000000000000011e+00 0.0000000000000000e+00 0.0000000000000000e+00
8.8000000000000007e+00 0.0000000000000000e+00 0.0000000000000000e+00
8.9000000000000004e+00 0.0000000000000000e+00 0.0000000000000000e+00
9.0000000000000000e+00 0.0000000000000000e+00 0.0000000000000000e+00
9.0999999999999996e+00 0.0000000000000000e+00 0.0000000000000000e+00
9.2000000000000011e+00 0.0000000000000000e+00 0.0000000000000000e+00
9.3000000000000007e+00 0.0000000000000000e+00 0.0000000000000000e+00
9.4000000000000004e+00 0.0000000000000000e+00 0.0000000000000000e+00
9.5000000000000000e+00 0.0000000000000000e+00 0.0000000000000000e+00
9.6000000000000014e+00 0.0000000000000000e+00 0.0000000000000000e+00
9.7000000000000011e+00 0.0000000000000000e+00 0.0000000000000000e+00
9.8000000000000007e+00 0.0000000000000000e+00 0.0000000000000000e+00
9.9000000000000004e+00 0.0000000000000000e+00 0.0000000000000000e+00
1.0000000000000000e+01 0.0000000000000000e+00 0.0000000000000000e+00

POINT_DATA 101

VECTORS velocity float
4.4889155221716983e+00 0.0000000000000000e+00 0.0000000000000000e+00
4.4878757023670381e+00 0.0000000000000000e+00 0.0000000000000000e+00
4.4869169381984140e+00 0.0000000000000000e+00 0.0000000000000000e+00
4.4860051694368233e+00 0.0000000000000000e+00 0.0000000000000000e+00
4.4851211700280560e+00 0.0000000000000000e+00 0.0000000000000000e+00
4.4842567372943707e+00 0.0000000000000000e+00 0.0000000000000000e+00
4.4834111755922894e+00 0.0000000000000000e+00 0.0000000000000000e+00
4.4825794415544875e+00 0.0000000000000000e+00 0.0000000000000000e+00
4.4817538911569432e+00 0.0000000000000000e+00 0.0000000000000000e+00
4.4809320897170162e+00 0.0000000000000000e+00 0.0000000000000000e+00
4.4801157508407918e+00 0.0000000000000000e+00 0.0000000000000000e+00
4.4793064021848066e+00 0.0000000000000000e+00 0.0000000000000000e+00
4.4785052328476400e+00 0.0000000000000000e+00 0.0000000000000000e+00
4.4777145369618943e+00 0.0000000000000000e+00 0.0000000000000000e+00
4.4769348969549467e+00 0.0000000000000000e+00 0.0000000000000000e+00
4.4761649797240830e+00 0.0000000000000000e+00 0.0000000000000000e+00
4.4754024002227162e+00 0.0000000000000000e+00 0.0000000000000000e+00
4.4746459020403284e+00 0.0000000000000000e+00 0.0000000000000000e+00
4.4738971351217316e+00 0.0000000000000000e+00 0.0000000000000000e+00
4.4731569034343330e+00 0.0000000000000000e+00 0.0000000000000000e+00
4.4724247617396262e+00 0.0000000000000000e+00 0.0000000000000000e+00
4.4717004529938826e+00 0.0000000000000000e+00 0.0000000000000000e+00
4.4709830054235731e+00 0.0000000000000000e+00 0.0000000000000000e+00
4.4702723029075422e+00 0.0000000000000000e+00 0.0000000000000000e+00
4.4695724888562269e+00 0.0000000000000000e+00 0.0000000000000000e+00
4.4688832833775605e+00 0.0000000000000000e+00 0.0000000000000000e+00
4.4682004757997777e+00 0.0000000000000000e+00 0.0000000000000000e+00
4.4675251214575145e+00 0.0000000000000000e+00 0.0000000000000000e+00
4.4668575682667715e+00 0.0000000000000000e+00 0.0000000000000000e+00
4.4661974421996060e+00 0.0000000000000000e+00 0.0000000000000000e+00
4.4655444468160681e+00 0.0000000000000000e+00 0.0000000000000000e+00
4.4648989061520892e+00 0.0000000000000000e+00 0.0000000000000000e+00
4.4642614084614127e+00 0.0000000000000000e+00 0.0000000000000000e+00
4.4636326953160141e+00 0.0000000000000000e+00 0.0000000000000000e+00
4.4630125412858170e+00 0.0000000000000000e+00 0.0000000000000000e+00
4.4624006882404643e+00 0.0000000000000000e+00 0.0000000000000000e+00
4.4617970563989493e+00 0.0000000000000000e+00 0.0000000000000000e+00
4.4612015444858484e+00 0.0000000000000000e+00 0.0000000000000000e+00
4.4606142712451788e+00 0.0000000000000000e+00 0.0000000000000000e+00
4.4600347132332034e+00 0.0000000000000000e+00 0.0000000000000000e+00
4.4594621899633546e+00 0.0000000000000000e+00 0.0000000000000000e+00
4.4588971758205744e+00 0.0000000000000000e+00 0.0000000000000000e+00
4.4583397973227177e+00 0.0000000000000000e+00 0.0000000000000000e+00
4.4577901114413114e+00 0.0000000000000000e+00 0.0000000000000000e+00
4.4572481422706751e+00 0.0000000000000000e+00 0.0000000000000000e+00
4.4567138990958064e+00 0.0000000000000000e+00 0.0000000000000000e+00
4.4561873846910229e+00 0.0000000000000000e+00 0.0000000000000000e+00
4.4556685992041416e+00 0.0000000000000000e+00 0.0000000000000000e+00
4.4551575414444349e+00 0.0000000000000000e+00 0.0000000000000000e+00
4.4546542095290942e+00 0.0000000000000000e+00 0.0000000000000000e+00
4.4541586013168493e+00 0.0000000000000000e+00 0.0000000000000000e+00
4.4536707146068713e+00 0.0000000000000000e+00 0.0000000000000000e+00
4.4531905474990898e+00 0.0000000000000000e+00 0.0000000000000000e+00
4.4527180982843024e+00 0.0000000000000000e+00 0.0000000000000000e+00
4.4522533651625960e+00 0.0000000000000000e+00 0.0000000000000000e+00
4.4517963460417018e+00 0.0000000000000000e+00 0.0000000000000000e+00
4.4513470382038935e+00 0.0000000000000000e+00 0.0000000000000000e+00
4.4509054400310433e+00 0.0000000000000000e+00 0.0000000000000000e+00
4.4504715504217689e+00 0.0000000000000000e+00 0.0000000000000000e+00
4.4500453676235132e+00 0.0000000000000000e+00 0.0000000000000000e+00
4.4496268899213876e+00 0.0000000000000000e+00 0.0000000000000000e+00
4.4492161158193388e+00 0.0000000000000000e+00 0.0000000000000000e+00
4.4488130436676778e+00 0.0000000000000000e+00 0.0000000000000000e+00
4.4484176715656627e+00 0.0000000000000000e+00 0.0000000000000000e+00
4.4480299979119016e+00 0.0000000000000000e+00 0.0000000000000000e+00
4.4476500212291379e+00 0.0000000000000000e+00 0.0000000000000000e+00
4.4472777399976238e+00 0.0000000000000000e+00 0.0000000000000000e+00
4.4469131529209323e+00 0.0000000000000000e+00 0.0000000000000000e+00
4.4465562587345726e+00 0.0000000000000000e+00 0.0000000000000000e+00
4.4462070561309694e+00 0.0000000000000000e+00 0.0000000000000000e+00
4.4458655437921477e+00 0.0000000000000000e+00 0.0000000000000000e+00
4.4455317204510845e+00 0.0000000000000000e+00 0.0000000000000000e+00
4.4452055848303447e+00 0.0000000000000000e+00 0.0000000000000000e+00
4.4448871358390329e+00 0.0000000000000000e+00 0.0000000000000000e+00
4.4445763725228007e+00 0.0000000000000000e+00 0.0000000000000000e+00
4.4442732935660736e+00 0.0000000000000000e+00 0.0000000000000000e+00
4.4439778984535359e+00 0.0000000000000000e+00 0.0000000000000000e+00
4.4436901856476521e+00 0.0000000000000000e+00 0.0000000000000000e+00
4.4434101548089728e+00 0.0000000000000000e+00 0.0000000000000000e+00
4.4431378055603004e+00 0.0000000000000000e+00 0.0000000000000000e+00
4.4428731360330014e+00 0.0000000000000000e+00 0.0000000000000000e+00
4.4426161455064284e+00 0.0000000000000000e+00 0.0000000000000000e+00
4.4423668330955977e+00 0.0000000000000000e+00 0.0000000000000000e+00
4.4421251996585847e+00 0.0000000000000000e+00 0.0000000000000000e+00
4.4418912431397377e+00 0.0000000000000000e+00 0.0000000000000000e+00
4.4416649618329966e+00 0.0000000000000000e+00 0.0000000000000000e+00
4.4414463548981171e+00 0.0000000000000000e+00 0.0000000000000000e+00
4.4412354221972619e+00 0.0000000000000000e+00 0.0000000000000000e+00
4.4410321641744872e+00 0.0000000000000000e+00 0.0000000000000000e+00
4.4408365809883730e+00 0.0000000000000000e+00 0.0000000000000000e+00
4.4406486729164838e+00 0.0000000000000000e+00 0.0000000000000000e+00
4.4404684385102984e+00 0.0000000000000000e+00 0.0000000000000000e+00
4.4402958736778340e+00 0.0000000000000000e+00 0.0000000000000000e+00
4.4401309892246879e+00 0.0000000000000000e+00 0.0000000000000000e+00
4.4399737587958938e+00 0.0000000000000000e+00 0.0000000000000000e+00
4.4398242519489655e+00 0.0000000000000000e+00 0.0000000000000000e+00
4.4396822768543771e+00 0.0000000000000000e+00 0.0000000000000000e+00
4.4395483573698629e+00 0.0000000000000000e+00 0.0000000000000000e+00
4.4394210662807287e+00 0.0000000000000000e+00 0.0000000000000000e+00
4.4393042809870176e+00 0.0000000000000000e+00 0.0000000000000000e+00
4.4391874956933064e+00 0.0000000000000000e+00 0.0000000000000000e+00


SCALARS pressure float
LOOKUP_TABLE default
-2.3519541288513096e+01
-2.3303665869220154e+01
-2.3087790449927216e+01
-2.2871616384994059e+01
-2.2654989719603385e+01
-2.2437826525351621e+01
-2.2220092696820220e+01
-2.2001789223665948e+01
-2.1782902622773179e+01
-2.1563406998967842e+01
-2.1343296322846836e+01
-2.1122583372904192e+01
-2.0901282426771424e+01
-2.0679406668110818e+01
-2.0456973369017220e+01
-2.0233993417054133e+01
-2.0010469108127690e+01
-1.9786396493393873e+01
-1.9561775141573495e+01
-1.9336618110610225e+01
-1.9110937519405702e+01
-1.8884739984666300e+01
-1.8658031330209411e+01
-1.8430814117494343e+01
-1.8203093808610845e+01
-1.7974895615527135e+01
-1.7746229366024160e+01
-1.7517084814872540e+01
-1.7287470860387881e+01
-1.7057396180115397e+01
-1.6826866680085935e+01
-1.6595888216828346e+01
-1.6364469113784896e+01
-1.6132619251662955e+01
-1.5900349682400616e+01
-1.5667667679654720e+01
-1.5434579782928148e+01
-1.5201093108472767e+01
-1.4967214687287003e+01
-1.4732952513836038e+01
-1.4498311800309475e+01
-1.4263296339556609e+01
-1.4027914640762852e+01
-1.3792174513098256e+01
-1.3556083463854208e+01
-1.3319648862600769e+01
-1.3082878018707191e+01
-1.2845778216836766e+01
-1.2608356732833641e+01
-1.2370620839259001e+01
-1.2132577808002397e+01
-1.1894234911967027e+01
-1.1655599425898098e+01
-1.1416678627479060e+01
-1.1177479796977137e+01
-1.0938010216127223e+01
-1.0698277167032394e+01
-1.0458287930870846e+01
-1.0218049794500741e+01
-9.9775700487373289e+00
-9.7368559834624921e+00
-9.4959148897301997e+00
-9.2547540608993888e+00
-9.0133807912181574e+00
-8.7718023751661001e+00
-8.5300261095281584e+00
-8.2880592929099208e+00
-8.0459092249915116e+00
-7.8035832074598073e+00
-7.5610885433112021e+00
-7.3184325364356475e+00
-7.0756224916676178e+00
-6.8326657150170824e+00
-6.5895695134053422e+00
-6.3463411953153681e+00
-6.1029880706863189e+00
-5.8595174488941764e+00
-5.6159366429844457e+00
-5.3722529631418068e+00
-5.1284737243766045e+00
-4.8846062425043240e+00
-4.6406578282359456e+00
-4.3966357968249117e+00
-4.1525474638080535e+00
-3.9084001514160933e+00
-3.6642011717900180e+00
-3.4199578384138207e+00
-3.1756774691920877e+00
-2.9313673845112951e+00
-2.6870349067092105e+00
-2.4426873577513728e+00
-2.1983320603201557e+00
-1.9539763329357434e+00
-1.7096274783657111e+00
-1.4652928664281542e+00
-1.2209797016138231e+00
-9.7669561720736875e-01
-7.3244708287334759e-01
-4.8824373273608418e-01
-2.4408662742214743e-01
0.0000000000000000e+00


SCALARS diameter float
LOOKUP_TABLE default
9.9788070610513224e-01
9.9790466453776738e-01
9.9792541800523127e-01
9.9794487107884366e-01
9.9796363863330895e-01
9.9798249812447037e-01
9.9799944980397293e-01
9.9801564662296638e-01
9.9803358980176549e-01
9.9805352842176909e-01
9.9807421141508090e-01
9.9809499181458350e-01
9.9811579304318454e-01
9.9813598858727770e-01
9.9815531394924228e-01
9.9817457474098437e-01
9.9819429478082888e-01
9.9821496589978587e-01
9.9823549658613908e-01
9.9825571721747208e-01
9.9827601131361765e-01
9.9829656080329110e-01
9.9831738695144667e-01
9.9833876036443669e-01
9.9835923247346914e-01
9.9837834804278980e-01
9.9839904852468975e-01
9.9841978439775814e-01
9.9844054475940125e-01
9.9846136000892949e-01
9.9848252371905499e-01
9.9850371328959875e-01
9.9852488851879306e-01
9.9854569797283044e-01
9.9856641020552150e-01
9.9858714501088919e-01
9.9860790369989616e-01
9.9862868719253473e-01
9.9864949490464960e-01
9.9867035496436618e-01
9.9869167562099703e-01
9.9871301594142470e-01
9.9873437826010314e-01
9.9875576222254348e-01
9.9877716765260860e-01
9.9879859441433283e-01
9.9882004221626886e-01
9.9884151074983030e-01
9.9886299956153091e-01
9.9888450840095677e-01
9.9890603695052105e-01
9.9892758492654987e-01
9.9894915198367940e-01
9.9897073763030164e-01
9.9899234151723804e-01
9.9901396334567905e-01
9.9903560305158956e-01
9.9905726031205599e-01
9.9907893436367534e-01
9.9910062498399299e-01
9.9912233187279964e-01
9.9914405460725209e-01
9.9916579284658491e-01
9.9918754638570595e-01
9.9920931491034182e-01
9.9923109801348076e-01
9.9925289540315687e-01
9.9927470669782514e-01
9.9929653150700015e-01
9.9931836951080644e-01
9.9934022036912684e-01
9.9936208376829061e-01
9.9938395936025082e-01
9.9940584682981937e-01
9.9942774571909021e-01
9.9944965578786304e-01
9.9947157662597219e-01
9.9949350778529611e-01
9.9951544924394164e-01
9.9953739984343892e-01
9.9955936010442514e-01
9.9958132938692368e-01
9.9960330745651438e-01
9.9962529353274654e-01
9.9964728723812268e-01
9.9966928934458910e-01
9.9969129882217511e-01
9.9971331584115264e-01
9.9973533914564672e-01
9.9975736850961938e-01
9.9977940323332259e-01
9.9980144332905174e-01
9.9982348974685908e-01
9.9984554015029170e-01
9.9986759518036594e-01
9.9988965430331167e-01
9.9991171721843553e-01
9.9993378357156304e-01
9.9995585278798538e-01
9.9997792454340861e-01
1.0000000000826601e+00


SCALARS iters float
LOOKUP_TABLE default
5.0000000000000000e+00
5.0000000000000000e+00
5.0000000000000000e+00
5.0000000000000000e+00
5.0000000000000000e+00
5.0000000000000000e+00
5.0000000000000000e+00
5.0000000000000000e+00
5.0000000000000000e+00
5.0000000000000000e+00
5.0000000000000000e+00
5.0000000000000000e+00
5.0000000000000000e+00
5.0000000000000000e+00
5.0000000000000000e+00
5.0000000000000000e+00
5.0000000000000000e+00
5.0000000000000000e+00
5.0000000000000000e+00
5.0000000000000000e+00
5.0000000000000000e+00
5.0000000000000000e+00
5.0000000000000000e+00
5.0000000000000000e+00
5.0000000000000000e+00
5.0000000000000000e+00
5.0000000000000000e+00
5.0000000000000000e+00
5.0000000000000000e+00
5.0000000000000000e+00
5.0000000000000000e+00
5.0000000000000000e+00
5.0000000000000000e+00
5.0000000000000000e+00
5.0000000000000000e+00
5.0000000000000000e+00
5.0000000000000000e+00
5.0000000000000000e+00
5.0000000000000000e+00
5.0000000000000000e+00
5.0000000000000000e+00
5.0000000000000000e+00
5.0000000000000000e+00
5.0000000000000000e+00
5.0000000000000000e+00
5.0000000000000000e+00
5.0000000000000000e+00
5.0000000000000000e+00
5.0000000000000000e+00
5.0000000000000000e+00
5.0000000000000000e+00
5.0000000000000000e+00
5.0000000000000000e+00
5.0000000000000000e+00
5.0000000000000000e+00
5.0000000000000000e+00
5.0000000000000000e+00
5.0000000000000000e+00
5.0000000000000000e+00
5.0000000000000000e+00
5.0000000000000000e+00
5.0000000000000000e+00
5.0000000000000000e+00
5.0000000000000000e+00
5.0000000000000000e+00
5.0000000000000000e+00
5.0000000000000000e+00
5.0000000000000000e+00
5.0000000000000000e+00
5.0000000000000000e+00
5.0000000000000000e+00
5.0000000000000000e+00
5.0000000000000000e+00
5.0000000000000000e+00
5.0000000000000000e+00
5.0000000000000000e+00
5.0000000000000000e+00
5.0000000000000000e+00
5.0000000000000000e+00
5.0000000000000000e+00
5.0000000000000000e+00
5.0000000000000000e+00
5.0000000000000000e+00
5.0000000000000000e+00
5.0000000000000000e+00
5.0000000000000000e+00
5.0000000000000000e+00
5.0000000000000000e+00
5.0000000000000000e+00
5.0000000000000000e+00
5.0000000000000000e+00
5.0000000000000000e+00
5.0000000000000000e+00
5.0000000000000000e+00
5.0000000000000000e+00
5.0000000000000000e+00
5.0000000000000000e+00
5.0000000000000000e+00
5.0000000000000000e+00
5.0000000000000000e+00
5.0000000000000000e+00


