# vtk DataFile Version 2.0

ASCII

DATASET UNSTRUCTURED_GRID

POINTS 101 float

0.0000000000000000e+00 0.0000000000000000e+00 0.0000000000000000e+00
1.0000000000000001e-01 0.0000000000000000e+00 0.0000000000000000e+00
2.0000000000000001e-01 0.0000000000000000e+00 0.0000000000000000e+00
3.0000000000000004e-01 0.0000000000000000e+00 0.0000000000000000e+00
4.0000000000000002e-01 0.0000000000000000e+00 0.0000000000000000e+00
5.0000000000000000e-01 0.0000000000000000e+00 0.0000000000000000e+00
6.0000000000000009e-01 0.0000000000000000e+00 0.0000000000000000e+00
7.0000000000000007e-01 0.0000000000000000e+00 0.0000000000000000e+00
8.0000000000000004e-01 0.0000000000000000e+00 0.0000000000000000e+00
9.0000000000000002e-01 0.0000000000000000e+00 0.0000000000000000e+00
1.0000000000000000e+00 0.0000000000000000e+00 0.0000000000000000e+00
1.1000000000000001e+00 0.0000000000000000e+00 0.0000000000000000e+00
1.2000000000000002e+00 0.0000000000000000e+00 0.0000000000000000e+00
1.3000000000000000e+00 0.0000000000000000e+00 0.0000000000000000e+00
1.4000000000000001e+00 0.0000000000000000e+00 0.0000000000000000e+00
1.5000000000000000e+00 0.0000000000000000e+00 0.0000000000000000e+00
1.6000000000000001e+00 0.0000000000000000e+00 0.0000000000000000e+00
1.7000000000000002e+00 0.0000000000000000e+00 0.0000000000000000e+00
1.8000000000000000e+00 0.0000000000000000e+00 0.0000000000000000e+00
1.9000000000000001e+00 0.0000000000000000e+00 0.0000000000000000e+00
2.0000000000000000e+00 0.0000000000000000e+00 0.0000000000000000e+00
2.1000000000000001e+00 0.0000000000000000e+00 0.0000000000000000e+00
2.2000000000000002e+00 0.0000000000000000e+00 0.0000000000000000e+00
2.3000000000000003e+00 0.0000000000000000e+00 0.0000000000000000e+00
2.4000000000000004e+00 0.0000000000000000e+00 0.0000000000000000e+00
2.5000000000000000e+00 0.0000000000000000e+00 0.0000000000000000e+00
2.6000000000000001e+00 0.0000000000000000e+00 0.0000000000000000e+00
2.7000000000000002e+00 0.0000000000000000e+00 0.0000000000000000e+00
2.8000000000000003e+00 0.0000000000000000e+00 0.0000000000000000e+00
2.9000000000000004e+00 0.0000000000000000e+00 0.0000000000000000e+00
3.0000000000000000e+00 0.0000000000000000e+00 0.0000000000000000e+00
3.1000000000000001e+00 0.0000000000000000e+00 0.0000000000000000e+00
3.2000000000000002e+00 0.0000000000000000e+00 0.0000000000000000e+00
3.3000000000000003e+00 0.0000000000000000e+00 0.0000000000000000e+00
3.4000000000000004e+00 0.0000000000000000e+00 0.0000000000000000e+00
3.5000000000000000e+00 0.0000000000000000e+00 0.0000000000000000e+00
3.6000000000000001e+00 0.0000000000000000e+00 0.0000000000000000e+00
3.7000000000000002e+00 0.0000000000000000e+00 0.0000000000000000e+00
3.8000000000000003e+00 0.0000000000000000e+00 0.0000000000000000e+00
3.9000000000000004e+00 0.0000000000000000e+00 0.0000000000000000e+00
4.0000000000000000e+00 0.0000000000000000e+00 0.0000000000000000e+00
4.1000000000000005e+00 0.0000000000000000e+00 0.0000000000000000e+00
4.2000000000000002e+00 0.0000000000000000e+00 0.0000000000000000e+00
4.2999999999999998e+00 0.0000000000000000e+00 0.0000000000000000e+00
4.4000000000000004e+00 0.0000000000000000e+00 0.0000000000000000e+00
4.5000000000000000e+00 0.0000000000000000e+00 0.0000000000000000e+00
4.6000000000000005e+00 0.0000000000000000e+00 0.0000000000000000e+00
4.7000000000000002e+00 0.0000000000000000e+00 0.0000000000000000e+00
4.8000000000000007e+00 0.0000000000000000e+00 0.0000000000000000e+00
4.9000000000000004e+00 0.0000000000000000e+00 0.0000000000000000e+00
5.0000000000000000e+00 0.0000000000000000e+00 0.0000000000000000e+00
5.1000000000000005e+00 0.0000000000000000e+00 0.0000000000000000e+00
5.2000000000000002e+00 0.0000000000000000e+00 0.0000000000000000e+00
5.3000000000000007e+00 0.0000000000000000e+00 0.0000000000000000e+00
5.4000000000000004e+00 0.0000000000000000e+00 0.0000000000000000e+00
5.5000000000000000e+00 0.0000000000000000e+00 0.0000000000000000e+00
5.6000000000000005e+00 0.0000000000000000e+00 0.0000000000000000e+00
5.7000000000000002e+00 0.0000000000000000e+00 0.0000000000000000e+00
5.8000000000000007e+00 0.0000000000000000e+00 0.0000000000000000e+00
5.9000000000000004e+00 0.0000000000000000e+00 0.0000000000000000e+00
6.0000000000000000e+00 0.0000000000000000e+00 0.0000000000000000e+00
6.1000000000000005e+00 0.0000000000000000e+00 0.0000000000000000e+00
6.2000000000000002e+00 0.0000000000000000e+00 0.0000000000000000e+00
6.3000000000000007e+00 0.0000000000000000e+00 0.0000000000000000e+00
6.4000000000000004e+00 0.0000000000000000e+00 0.0000000000000000e+00
6.5000000000000000e+00 0.0000000000000000e+00 0.0000000000000000e+00
6.6000000000000005e+00 0.0000000000000000e+00 0.0000000000000000e+00
6.7000000000000002e+00 0.0000000000000000e+00 0.0000000000000000e+00
6.8000000000000007e+00 0.0000000000000000e+00 0.0000000000000000e+00
6.9000000000000004e+00 0.0000000000000000e+00 0.0000000000000000e+00
7.0000000000000000e+00 0.0000000000000000e+00 0.0000000000000000e+00
7.1000000000000005e+00 0.0000000000000000e+00 0.0000000000000000e+00
7.2000000000000002e+00 0.0000000000000000e+00 0.0000000000000000e+00
7.3000000000000007e+00 0.0000000000000000e+00 0.0000000000000000e+00
7.4000000000000004e+00 0.0000000000000000e+00 0.0000000000000000e+00
7.5000000000000000e+00 0.0000000000000000e+00 0.0000000000000000e+00
7.6000000000000005e+00 0.0000000000000000e+00 0.0000000000000000e+00
7.7000000000000002e+00 0.0000000000000000e+00 0.0000000000000000e+00
7.8000000000000007e+00 0.0000000000000000e+00 0.0000000000000000e+00
7.9000000000000004e+00 0.0000000000000000e+00 0.0000000000000000e+00
8.0000000000000000e+00 0.0000000000000000e+00 0.0000000000000000e+00
8.0999999999999996e+00 0.0000000000000000e+00 0.0000000000000000e+00
8.2000000000000011e+00 0.0000000000000000e+00 0.0000000000000000e+00
8.3000000000000007e+00 0.0000000000000000e+00 0.0000000000000000e+00
8.4000000000000004e+00 0.0000000000000000e+00 0.0000000000000000e+00
8.5000000000000000e+00 0.0000000000000000e+00 0.0000000000000000e+00
8.5999999999999996e+00 0.0000000000000000e+00 0.0000000000000000e+00
8.7000000000000011e+00 0.0000000000000000e+00 0.0000000000000000e+00
8.8000000000000007e+00 0.0000000000000000e+00 0.0000000000000000e+00
8.9000000000000004e+00 0.0000000000000000e+00 0.0000000000000000e+00
9.0000000000000000e+00 0.0000000000000000e+00 0.0000000000000000e+00
9.0999999999999996e+00 0.0000000000000000e+00 0.0000000000000000e+00
9.2000000000000011e+00 0.0000000000000000e+00 0.0000000000000000e+00
9.3000000000000007e+00 0.0000000000000000e+00 0.0000000000000000e+00
9.4000000000000004e+00 0.0000000000000000e+00 0.0000000000000000e+00
9.5000000000000000e+00 0.0000000000000000e+00 0.0000000000000000e+00
9.6000000000000014e+00 0.0000000000000000e+00 0.0000000000000000e+00
9.7000000000000011e+00 0.0000000000000000e+00 0.0000000000000000e+00
9.8000000000000007e+00 0.0000000000000000e+00 0.0000000000000000e+00
9.9000000000000004e+00 0.0000000000000000e+00 0.0000000000000000e+00
1.0000000000000000e+01 0.0000000000000000e+00 0.0000000000000000e+00

POINT_DATA 101

VECTORS velocity float
5.2570029278526809e+00 0.0000000000000000e+00 0.0000000000000000e+00
5.2568474245884298e+00 0.0000000000000000e+00 0.0000000000000000e+00
5.2566958386518765e+00 0.0000000000000000e+00 0.0000000000000000e+00
5.2565472427417088e+00 0.0000000000000000e+00 0.0000000000000000e+00
5.2564027811207339e+00 0.0000000000000000e+00 0.0000000000000000e+00
5.2562603988963117e+00 0.0000000000000000e+00 0.0000000000000000e+00
5.2561223866665143e+00 0.0000000000000000e+00 0.0000000000000000e+00
5.2559879147767887e+00 0.0000000000000000e+00 0.0000000000000000e+00
5.2558516093382472e+00 0.0000000000000000e+00 0.0000000000000000e+00
5.2557109268191908e+00 0.0000000000000000e+00 0.0000000000000000e+00
5.2555681543127877e+00 0.0000000000000000e+00 0.0000000000000000e+00
5.2554247186418364e+00 0.0000000000000000e+00 0.0000000000000000e+00
5.2552821847194471e+00 0.0000000000000000e+00 0.0000000000000000e+00
5.2551416847677466e+00 0.0000000000000000e+00 0.0000000000000000e+00
5.2550028422336492e+00 0.0000000000000000e+00 0.0000000000000000e+00
5.2548667959682414e+00 0.0000000000000000e+00 0.0000000000000000e+00
5.2547305799726161e+00 0.0000000000000000e+00 0.0000000000000000e+00
5.2545914513250578e+00 0.0000000000000000e+00 0.0000000000000000e+00
5.2544521251271687e+00 0.0000000000000000e+00 0.0000000000000000e+00
5.2543131593064389e+00 0.0000000000000000e+00 0.0000000000000000e+00
5.2541746208834583e+00 0.0000000000000000e+00 0.0000000000000000e+00
5.2540388218226921e+00 0.0000000000000000e+00 0.0000000000000000e+00
5.2539053761251795e+00 0.0000000000000000e+00 0.0000000000000000e+00
5.2537722574720878e+00 0.0000000000000000e+00 0.0000000000000000e+00
5.2536318120947030e+00 0.0000000000000000e+00 0.0000000000000000e+00
5.2534885872929804e+00 0.0000000000000000e+00 0.0000000000000000e+00
5.2533502209072118e+00 0.0000000000000000e+00 0.0000000000000000e+00
5.2532135818861594e+00 0.0000000000000000e+00 0.0000000000000000e+00
5.2530778298617502e+00 0.0000000000000000e+00 0.0000000000000000e+00
5.2529427217927838e+00 0.0000000000000000e+00 0.0000000000000000e+00
5.2528077303856939e+00 0.0000000000000000e+00 0.0000000000000000e+00
5.2526730419904348e+00 0.0000000000000000e+00 0.0000000000000000e+00
5.2525382544375923e+00 0.0000000000000000e+00 0.0000000000000000e+00
5.2524025638350480e+00 0.0000000000000000e+00 0.0000000000000000e+00
5.2522662339362904e+00 0.0000000000000000e+00 0.0000000000000000e+00
5.2521297047018622e+00 0.0000000000000000e+00 0.0000000000000000e+00
5.2519931118565610e+00 0.0000000000000000e+00 0.0000000000000000e+00
5.2518565873194065e+00 0.0000000000000000e+00 0.0000000000000000e+00
5.2517200529118941e+00 0.0000000000000000e+00 0.0000000000000000e+00
5.2515839166735105e+00 0.0000000000000000e+00 0.0000000000000000e+00
5.2514484440089175e+00 0.0000000000000000e+00 0.0000000000000000e+00
5.2513132955463275e+00 0.0000000000000000e+00 0.0000000000000000e+00
5.2511783745717375e+00 0.0000000000000000e+00 0.0000000000000000e+00
5.2510436287270581e+00 0.0000000000000000e+00 0.0000000000000000e+00
5.2509090278464781e+00 0.0000000000000000e+00 0.0000000000000000e+00
5.2507745503464314e+00 0.0000000000000000e+00 0.0000000000000000e+00
5.2506401856986784e+00 0.0000000000000000e+00 0.0000000000000000e+00
5.2505059313312508e+00 0.0000000000000000e+00 0.0000000000000000e+00
5.2503717847353686e+00 0.0000000000000000e+00 0.0000000000000000e+00
5.2502377417825130e+00 0.0000000000000000e+00 0.0000000000000000e+00
5.2501037984708141e+00 0.0000000000000000e+00 0.0000000000000000e+00
5.2499699522454337e+00 0.0000000000000000e+00 0.0000000000000000e+00
5.2498362014123199e+00 0.0000000000000000e+00 0.0000000000000000e+00
5.2497025448055235e+00 0.0000000000000000e+00 0.0000000000000000e+00
5.2495689806913042e+00 0.0000000000000000e+00 0.0000000000000000e+00
5.2494355080800172e+00 0.0000000000000000e+00 0.0000000000000000e+00
5.2493021237349238e+00 0.0000000000000000e+00 0.0000000000000000e+00
5.2491688252488737e+00 0.0000000000000000e+00 0.0000000000000000e+00
5.2490356124054340e+00 0.0000000000000000e+00 0.0000000000000000e+00
5.2489024837393163e+00 0.0000000000000000e+00 0.0000000000000000e+00
5.2487694377269181e+00 0.0000000000000000e+00 0.0000000000000000e+00
5.2486364734905022e+00 0.0000000000000000e+00 0.0000000000000000e+00
5.2485035894532519e+00 0.0000000000000000e+00 0.0000000000000000e+00
5.2483707831154698e+00 0.0000000000000000e+00 0.0000000000000000e+00
5.2482380525504553e+00 0.0000000000000000e+00 0.0000000000000000e+00
5.2481053962274649e+00 0.0000000000000000e+00 0.0000000000000000e+00
5.2479728124332006e+00 0.0000000000000000e+00 0.0000000000000000e+00
5.2478402996966862e+00 0.0000000000000000e+00 0.0000000000000000e+00
5.2477078566188018e+00 0.0000000000000000e+00 0.0000000000000000e+00
5.2475754818018912e+00 0.0000000000000000e+00 0.0000000000000000e+00
5.2474431739122167e+00 0.0000000000000000e+00 0.0000000000000000e+00
5.2473109318042592e+00 0.0000000000000000e+00 0.0000000000000000e+00
5.2471787543338095e+00 0.0000000000000000e+00 0.0000000000000000e+00
5.2470466398807512e+00 0.0000000000000000e+00 0.0000000000000000e+00
5.2469145874342482e+00 0.0000000000000000e+00 0.0000000000000000e+00
5.2467825944523394e+00 0.0000000000000000e+00 0.0000000000000000e+00
5.2466506602326195e+00 0.0000000000000000e+00 0.0000000000000000e+00
5.2465187823024246e+00 0.0000000000000000e+00 0.0000000000000000e+00
5.2463869608210274e+00 0.0000000000000000e+00 0.0000000000000000e+00
5.2462551967718287e+00 0.0000000000000000e+00 0.0000000000000000e+00
5.2461234856877779e+00 0.0000000000000000e+00 0.0000000000000000e+00
5.2459918260005818e+00 0.0000000000000000e+00 0.0000000000000000e+00
5.2458602160012067e+00 0.0000000000000000e+00 0.0000000000000000e+00
5.2457286576926601e+00 0.0000000000000000e+00 0.0000000000000000e+00
5.2455971476169951e+00 0.0000000000000000e+00 0.0000000000000000e+00
5.2454656821215950e+00 0.0000000000000000e+00 0.0000000000000000e+00
5.2453342553412323e+00 0.0000000000000000e+00 0.0000000000000000e+00
5.2452028730049465e+00 0.0000000000000000e+00 0.0000000000000000e+00
5.2450715385196087e+00 0.0000000000000000e+00 0.0000000000000000e+00
5.2449402472174675e+00 0.0000000000000000e+00 0.0000000000000000e+00
5.2448089958177757e+00 0.0000000000000000e+00 0.0000000000000000e+00
5.2446777799906128e+00 0.0000000000000000e+00 0.0000000000000000e+00
5.2445466016695228e+00 0.0000000000000000e+00 0.0000000000000000e+00
5.2444154617918572e+00 0.0000000000000000e+00 0.0000000000000000e+00
5.2442843560946608e+00 0.0000000000000000e+00 0.0000000000000000e+00
5.2441532885532212e+00 0.0000000000000000e+00 0.0000000000000000e+00
5.2440222461490889e+00 0.0000000000000000e+00 0.0000000000000000e+00
5.2438912497305425e+00 0.0000000000000000e+00 0.0000000000000000e+00
5.2437602603429054e+00 0.0000000000000000e+00 0.0000000000000000e+00
5.2436293444578519e+00 0.0000000000000000e+00 0.0000000000000000e+00
5.2434984285727992e+00 0.0000000000000000e+00 0.0000000000000000e+00


SCALARS pressure float
LOOKUP_TABLE default
-2.7594751447107853e+01
-2.7315848632824398e+01
-2.7036945818540946e+01
-2.6758123130828565e+01
-2.6479391250499219e+01
-2.6200755401574256e+01
-2.5922206605746748e+01
-2.5643751208642904e+01
-2.5365387277290836e+01
-2.5087095182882084e+01
-2.4808860416937765e+01
-2.4530689294532706e+01
-2.4252588876893967e+01
-2.3974565607039150e+01
-2.3696622904546068e+01
-2.3418758689220070e+01
-2.3140975416683577e+01
-2.2863261370944645e+01
-2.2585607522867367e+01
-2.2308024872968236e+01
-2.2030515832598681e+01
-2.1753078951668822e+01
-2.1475720789001045e+01
-2.1198438446765149e+01
-2.0921222659276374e+01
-2.0644043201665053e+01
-2.0366915112655992e+01
-2.0089872038665138e+01
-1.9812906821720858e+01
-1.9536013993054787e+01
-1.9259190660319636e+01
-1.8982432714013267e+01
-1.8705738868317987e+01
-1.8429105914818457e+01
-1.8152529504267729e+01
-1.7876009823331202e+01
-1.7599548550912480e+01
-1.7323146356997782e+01
-1.7046803695206748e+01
-1.6770520080503442e+01
-1.6494296844641088e+01
-1.6218134814129453e+01
-1.5942032162683946e+01
-1.5665987535974281e+01
-1.5389999843120997e+01
-1.5114068128340294e+01
-1.4838191495558148e+01
-1.4562369105930816e+01
-1.4286600159883594e+01
-1.4010883862138066e+01
-1.3735219409393126e+01
-1.3459605996716350e+01
-1.3184042823486617e+01
-1.2908529092290058e+01
-1.2633064006887816e+01
-1.2357646767057741e+01
-1.2082276573178397e+01
-1.1806952614757074e+01
-1.1531674081819741e+01
-1.1256440171937218e+01
-1.0981250077453669e+01
-1.0706102987972363e+01
-1.0430998092923607e+01
-1.0155934576229564e+01
-9.8809116154901186e+00
-9.6059283879201320e+00
-9.3309840706958305e+00
-9.0560778385560745e+00
-8.7812088652025686e+00
-8.5063763228195768e+00
-8.2315793816197225e+00
-7.9568172098151955e+00
-7.6820889738236211e+00
-7.4073938371869765e+00
-7.1327309587535952e+00
-6.8580994967243303e+00
-6.5834986008715424e+00
-6.3089274255985215e+00
-6.0343851167499167e+00
-5.7598708272194887e+00
-5.4853837103528491e+00
-5.2109228952565694e+00
-4.9364875166051023e+00
-4.6620767070533100e+00
-4.3876896120146780e+00
-4.1133253542350987e+00
-3.8389830489229291e+00
-3.5646617998312093e+00
-3.2903607550443952e+00
-3.0160790537107798e+00
-2.7418157994758352e+00
-2.4675700932950226e+00
-2.1933410292662749e+00
-1.9191277223822756e+00
-1.6449292844565340e+00
-1.3707448054638394e+00
-1.0965733926424355e+00
-8.2241410793563241e-01
-5.4826608056313919e-01
-2.7412835978087269e-01
0.0000000000000000e+00


SCALARS diameter float
LOOKUP_TABLE default
9.9750604099125117e-01
9.9753802571957684e-01
9.9756473612217422e-01
9.9759102335701511e-01
9.9761586677350156e-01
9.9764062725080593e-01
9.9766466820905875e-01
9.9768755016633603e-01
9.9771140896800814e-01
9.9773722232583062e-01
9.9776343570947890e-01
9.9778956045538825e-01
9.9781545948762185e-01
9.9784064772679903e-01
9.9786532456083510e-01
9.9788961771265117e-01
9.9791347782454465e-01
9.9793885747306177e-01
9.9796456743162409e-01
9.9798989934758575e-01
9.9801523524198910e-01
9.9803980905819101e-01
9.9806343848667367e-01
9.9808720130534001e-01
9.9811246943500787e-01
9.9814019893098826e-01
9.9816496497974427e-01
9.9818962226763785e-01
9.9821428797025480e-01
9.9823895882833735e-01
9.9826363279664110e-01
9.9828831484214287e-01
9.9831289134611989e-01
9.9833775558948357e-01
9.9836281294755136e-01
9.9838786975751359e-01
9.9841292747137789e-01
9.9843798738844580e-01
9.9846304864982227e-01
9.9848809940815442e-01
9.9851292151028936e-01
9.9853773994082273e-01
9.9856255650170567e-01
9.9858737125362873e-01
9.9861218446337296e-01
9.9863699730072819e-01
9.9866181085961836e-01
9.9868662335491643e-01
9.9871143437503840e-01
9.9873624428409724e-01
9.9876105372581125e-01
9.9878586273343672e-01
9.9881067109506150e-01
9.9883547864819933e-01
9.9886028526261095e-01
9.9888509094686628e-01
9.9890989567251720e-01
9.9893470026495812e-01
9.9895950374553466e-01
9.9898430621742440e-01
9.9900910767713869e-01
9.9903390800465608e-01
9.9905870697832688e-01
9.9908350494688714e-01
9.9910830199496259e-01
9.9913309798853334e-01
9.9915789295300106e-01
9.9918268687004952e-01
9.9920747965620349e-01
9.9923227130515846e-01
9.9925706175306084e-01
9.9928185091975930e-01
9.9930663866374403e-01
9.9933142497691740e-01
9.9935620983134232e-01
9.9938099320395379e-01
9.9940577540636877e-01
9.9943055591728869e-01
9.9945533538184594e-01
9.9948011196561470e-01
9.9950488700461704e-01
9.9952966089091899e-01
9.9955443295509983e-01
9.9957920312019843e-01
9.9960397038992899e-01
9.9962873749668169e-01
9.9965350337435055e-01
9.9967826899495937e-01
9.9970302915289455e-01
9.9972778790713357e-01
9.9975254426270965e-01
9.9977730013483568e-01
9.9980205405951872e-01
9.9982680483549846e-01
9.9985155377044188e-01
9.9987630016427242e-01
9.9990104457030782e-01
9.9992578682597211e-01
9.9995052621130720e-01
9.9997526171927587e-01
9.9999999395683092e-01


SCALARS iters float
LOOKUP_TABLE default
4.0000000000000000e+00
4.0000000000000000e+00
4.0000000000000000e+00
4.0000000000000000e+00
4.0000000000000000e+00
4.0000000000000000e+00
4.0000000000000000e+00
4.0000000000000000e+00
4.0000000000000000e+00
4.0000000000000000e+00
4.0000000000000000e+00
4.0000000000000000e+00
4.0000000000000000e+00
4.0000000000000000e+00
4.0000000000000000e+00
4.0000000000000000e+00
4.0000000000000000e+00
4.0000000000000000e+00
4.0000000000000000e+00
4.0000000000000000e+00
4.0000000000000000e+00
4.0000000000000000e+00
4.0000000000000000e+00
4.0000000000000000e+00
4.0000000000000000e+00
4.0000000000000000e+00
4.0000000000000000e+00
4.0000000000000000e+00
4.0000000000000000e+00
4.0000000000000000e+00
4.0000000000000000e+00
4.0000000000000000e+00
4.0000000000000000e+00
4.0000000000000000e+00
4.0000000000000000e+00
4.0000000000000000e+00
4.0000000000000000e+00
4.0000000000000000e+00
4.0000000000000000e+00
4.0000000000000000e+00
4.0000000000000000e+00
4.0000000000000000e+00
4.0000000000000000e+00
4.0000000000000000e+00
4.0000000000000000e+00
4.0000000000000000e+00
4.0000000000000000e+00
4.0000000000000000e+00
4.0000000000000000e+00
4.0000000000000000e+00
4.0000000000000000e+00
4.0000000000000000e+00
4.0000000000000000e+00
4.0000000000000000e+00
4.0000000000000000e+00
4.0000000000000000e+00
4.0000000000000000e+00
4.0000000000000000e+00
4.0000000000000000e+00
4.0000000000000000e+00
4.0000000000000000e+00
4.0000000000000000e+00
4.0000000000000000e+00
4.0000000000000000e+00
4.0000000000000000e+00
4.0000000000000000e+00
4.0000000000000000e+00
4.0000000000000000e+00
4.0000000000000000e+00
4.0000000000000000e+00
4.0000000000000000e+00
4.0000000000000000e+00
4.0000000000000000e+00
4.0000000000000000e+00
4.0000000000000000e+00
4.0000000000000000e+00
4.0000000000000000e+00
4.0000000000000000e+00
4.0000000000000000e+00
4.0000000000000000e+00
4.0000000000000000e+00
4.0000000000000000e+00
4.0000000000000000e+00
4.0000000000000000e+00
4.0000000000000000e+00
4.0000000000000000e+00
4.0000000000000000e+00
4.0000000000000000e+00
4.0000000000000000e+00
4.0000000000000000e+00
4.0000000000000000e+00
4.0000000000000000e+00
4.0000000000000000e+00
4.0000000000000000e+00
4.0000000000000000e+00
4.0000000000000000e+00
4.0000000000000000e+00
4.0000000000000000e+00
4.0000000000000000e+00
4.0000000000000000e+00
4.0000000000000000e+00


