# vtk DataFile Version 2.0

ASCII

DATASET UNSTRUCTURED_GRID

POINTS 101 float

0.0000000000000000e+00 0.0000000000000000e+00 0.0000000000000000e+00
1.0000000000000001e-01 0.0000000000000000e+00 0.0000000000000000e+00
2.0000000000000001e-01 0.0000000000000000e+00 0.0000000000000000e+00
3.0000000000000004e-01 0.0000000000000000e+00 0.0000000000000000e+00
4.0000000000000002e-01 0.0000000000000000e+00 0.0000000000000000e+00
5.0000000000000000e-01 0.0000000000000000e+00 0.0000000000000000e+00
6.0000000000000009e-01 0.0000000000000000e+00 0.0000000000000000e+00
7.0000000000000007e-01 0.0000000000000000e+00 0.0000000000000000e+00
8.0000000000000004e-01 0.0000000000000000e+00 0.0000000000000000e+00
9.0000000000000002e-01 0.0000000000000000e+00 0.0000000000000000e+00
1.0000000000000000e+00 0.0000000000000000e+00 0.0000000000000000e+00
1.1000000000000001e+00 0.0000000000000000e+00 0.0000000000000000e+00
1.2000000000000002e+00 0.0000000000000000e+00 0.0000000000000000e+00
1.3000000000000000e+00 0.0000000000000000e+00 0.0000000000000000e+00
1.4000000000000001e+00 0.0000000000000000e+00 0.0000000000000000e+00
1.5000000000000000e+00 0.0000000000000000e+00 0.0000000000000000e+00
1.6000000000000001e+00 0.0000000000000000e+00 0.0000000000000000e+00
1.7000000000000002e+00 0.0000000000000000e+00 0.0000000000000000e+00
1.8000000000000000e+00 0.0000000000000000e+00 0.0000000000000000e+00
1.9000000000000001e+00 0.0000000000000000e+00 0.0000000000000000e+00
2.0000000000000000e+00 0.0000000000000000e+00 0.0000000000000000e+00
2.1000000000000001e+00 0.0000000000000000e+00 0.0000000000000000e+00
2.2000000000000002e+00 0.0000000000000000e+00 0.0000000000000000e+00
2.3000000000000003e+00 0.0000000000000000e+00 0.0000000000000000e+00
2.4000000000000004e+00 0.0000000000000000e+00 0.0000000000000000e+00
2.5000000000000000e+00 0.0000000000000000e+00 0.0000000000000000e+00
2.6000000000000001e+00 0.0000000000000000e+00 0.0000000000000000e+00
2.7000000000000002e+00 0.0000000000000000e+00 0.0000000000000000e+00
2.8000000000000003e+00 0.0000000000000000e+00 0.0000000000000000e+00
2.9000000000000004e+00 0.0000000000000000e+00 0.0000000000000000e+00
3.0000000000000000e+00 0.0000000000000000e+00 0.0000000000000000e+00
3.1000000000000001e+00 0.0000000000000000e+00 0.0000000000000000e+00
3.2000000000000002e+00 0.0000000000000000e+00 0.0000000000000000e+00
3.3000000000000003e+00 0.0000000000000000e+00 0.0000000000000000e+00
3.4000000000000004e+00 0.0000000000000000e+00 0.0000000000000000e+00
3.5000000000000000e+00 0.0000000000000000e+00 0.0000000000000000e+00
3.6000000000000001e+00 0.0000000000000000e+00 0.0000000000000000e+00
3.7000000000000002e+00 0.0000000000000000e+00 0.0000000000000000e+00
3.8000000000000003e+00 0.0000000000000000e+00 0.0000000000000000e+00
3.9000000000000004e+00 0.0000000000000000e+00 0.0000000000000000e+00
4.0000000000000000e+00 0.0000000000000000e+00 0.0000000000000000e+00
4.1000000000000005e+00 0.0000000000000000e+00 0.0000000000000000e+00
4.2000000000000002e+00 0.0000000000000000e+00 0.0000000000000000e+00
4.2999999999999998e+00 0.0000000000000000e+00 0.0000000000000000e+00
4.4000000000000004e+00 0.0000000000000000e+00 0.0000000000000000e+00
4.5000000000000000e+00 0.0000000000000000e+00 0.0000000000000000e+00
4.6000000000000005e+00 0.0000000000000000e+00 0.0000000000000000e+00
4.7000000000000002e+00 0.0000000000000000e+00 0.0000000000000000e+00
4.8000000000000007e+00 0.0000000000000000e+00 0.0000000000000000e+00
4.9000000000000004e+00 0.0000000000000000e+00 0.0000000000000000e+00
5.0000000000000000e+00 0.0000000000000000e+00 0.0000000000000000e+00
5.1000000000000005e+00 0.0000000000000000e+00 0.0000000000000000e+00
5.2000000000000002e+00 0.0000000000000000e+00 0.0000000000000000e+00
5.3000000000000007e+00 0.0000000000000000e+00 0.0000000000000000e+00
5.4000000000000004e+00 0.0000000000000000e+00 0.0000000000000000e+00
5.5000000000000000e+00 0.0000000000000000e+00 0.0000000000000000e+00
5.6000000000000005e+00 0.0000000000000000e+00 0.0000000000000000e+00
5.7000000000000002e+00 0.0000000000000000e+00 0.0000000000000000e+00
5.8000000000000007e+00 0.0000000000000000e+00 0.0000000000000000e+00
5.9000000000000004e+00 0.0000000000000000e+00 0.0000000000000000e+00
6.0000000000000000e+00 0.0000000000000000e+00 0.0000000000000000e+00
6.1000000000000005e+00 0.0000000000000000e+00 0.0000000000000000e+00
6.2000000000000002e+00 0.0000000000000000e+00 0.0000000000000000e+00
6.3000000000000007e+00 0.0000000000000000e+00 0.0000000000000000e+00
6.4000000000000004e+00 0.0000000000000000e+00 0.0000000000000000e+00
6.5000000000000000e+00 0.0000000000000000e+00 0.0000000000000000e+00
6.6000000000000005e+00 0.0000000000000000e+00 0.0000000000000000e+00
6.7000000000000002e+00 0.0000000000000000e+00 0.0000000000000000e+00
6.8000000000000007e+00 0.0000000000000000e+00 0.0000000000000000e+00
6.9000000000000004e+00 0.0000000000000000e+00 0.0000000000000000e+00
7.0000000000000000e+00 0.0000000000000000e+00 0.0000000000000000e+00
7.1000000000000005e+00 0.0000000000000000e+00 0.0000000000000000e+00
7.2000000000000002e+00 0.0000000000000000e+00 0.0000000000000000e+00
7.3000000000000007e+00 0.0000000000000000e+00 0.0000000000000000e+00
7.4000000000000004e+00 0.0000000000000000e+00 0.0000000000000000e+00
7.5000000000000000e+00 0.0000000000000000e+00 0.0000000000000000e+00
7.6000000000000005e+00 0.0000000000000000e+00 0.0000000000000000e+00
7.7000000000000002e+00 0.0000000000000000e+00 0.0000000000000000e+00
7.8000000000000007e+00 0.0000000000000000e+00 0.0000000000000000e+00
7.9000000000000004e+00 0.0000000000000000e+00 0.0000000000000000e+00
8.0000000000000000e+00 0.0000000000000000e+00 0.0000000000000000e+00
8.0999999999999996e+00 0.0000000000000000e+00 0.0000000000000000e+00
8.2000000000000011e+00 0.0000000000000000e+00 0.0000000000000000e+00
8.3000000000000007e+00 0.0000000000000000e+00 0.0000000000000000e+00
8.4000000000000004e+00 0.0000000000000000e+00 0.0000000000000000e+00
8.5000000000000000e+00 0.0000000000000000e+00 0.0000000000000000e+00
8.5999999999999996e+00 0.0000000000000000e+00 0.0000000000000000e+00
8.7000000000000011e+00 0.0000000000000000e+00 0.0000000000000000e+00
8.8000000000000007e+00 0.0000000000000000e+00 0.0000000000000000e+00
8.9000000000000004e+00 0.0000000000000000e+00 0.0000000000000000e+00
9.0000000000000000e+00 0.0000000000000000e+00 0.0000000000000000e+00
9.0999999999999996e+00 0.0000000000000000e+00 0.0000000000000000e+00
9.2000000000000011e+00 0.0000000000000000e+00 0.0000000000000000e+00
9.3000000000000007e+00 0.0000000000000000e+00 0.0000000000000000e+00
9.4000000000000004e+00 0.0000000000000000e+00 0.0000000000000000e+00
9.5000000000000000e+00 0.0000000000000000e+00 0.0000000000000000e+00
9.6000000000000014e+00 0.0000000000000000e+00 0.0000000000000000e+00
9.7000000000000011e+00 0.0000000000000000e+00 0.0000000000000000e+00
9.8000000000000007e+00 0.0000000000000000e+00 0.0000000000000000e+00
9.9000000000000004e+00 0.0000000000000000e+00 0.0000000000000000e+00
1.0000000000000000e+01 0.0000000000000000e+00 0.0000000000000000e+00

POINT_DATA 101

VECTORS velocity float
5.5879117958833548e+00 0.0000000000000000e+00 0.0000000000000000e+00
5.5880021828951838e+00 0.0000000000000000e+00 0.0000000000000000e+00
5.5880438105283661e+00 0.0000000000000000e+00 0.0000000000000000e+00
5.5880517993878911e+00 0.0000000000000000e+00 0.0000000000000000e+00
5.5880406959618529e+00 0.0000000000000000e+00 0.0000000000000000e+00
5.5880198201612048e+00 0.0000000000000000e+00 0.0000000000000000e+00
5.5879948181660053e+00 0.0000000000000000e+00 0.0000000000000000e+00
5.5879738289091145e+00 0.0000000000000000e+00 0.0000000000000000e+00
5.5879556388122644e+00 0.0000000000000000e+00 0.0000000000000000e+00
5.5879360673355283e+00 0.0000000000000000e+00 0.0000000000000000e+00
5.5879168794866239e+00 0.0000000000000000e+00 0.0000000000000000e+00
5.5878992658917426e+00 0.0000000000000000e+00 0.0000000000000000e+00
5.5878832704052073e+00 0.0000000000000000e+00 0.0000000000000000e+00
5.5878704472722118e+00 0.0000000000000000e+00 0.0000000000000000e+00
5.5878617216136881e+00 0.0000000000000000e+00 0.0000000000000000e+00
5.5878574628731537e+00 0.0000000000000000e+00 0.0000000000000000e+00
5.5878548415608496e+00 0.0000000000000000e+00 0.0000000000000000e+00
5.5878503844352077e+00 0.0000000000000000e+00 0.0000000000000000e+00
5.5878453512772674e+00 0.0000000000000000e+00 0.0000000000000000e+00
5.5878410146892135e+00 0.0000000000000000e+00 0.0000000000000000e+00
5.5878385679324571e+00 0.0000000000000000e+00 0.0000000000000000e+00
5.5878397271636038e+00 0.0000000000000000e+00 0.0000000000000000e+00
5.5878468128241572e+00 0.0000000000000000e+00 0.0000000000000000e+00
5.5878607713001651e+00 0.0000000000000000e+00 0.0000000000000000e+00
5.5878744728612677e+00 0.0000000000000000e+00 0.0000000000000000e+00
5.5878872597603975e+00 0.0000000000000000e+00 0.0000000000000000e+00
5.5879032782985014e+00 0.0000000000000000e+00 0.0000000000000000e+00
5.5879217157127146e+00 0.0000000000000000e+00 0.0000000000000000e+00
5.5879426104684367e+00 0.0000000000000000e+00 0.0000000000000000e+00
5.5879651272765001e+00 0.0000000000000000e+00 0.0000000000000000e+00
5.5879887237262995e+00 0.0000000000000000e+00 0.0000000000000000e+00
5.5880139523499350e+00 0.0000000000000000e+00 0.0000000000000000e+00
5.5880413435880278e+00 0.0000000000000000e+00 0.0000000000000000e+00
5.5880716856303803e+00 0.0000000000000000e+00 0.0000000000000000e+00
5.5881047506430761e+00 0.0000000000000000e+00 0.0000000000000000e+00
5.5881401743440371e+00 0.0000000000000000e+00 0.0000000000000000e+00
5.5881778513162210e+00 0.0000000000000000e+00 0.0000000000000000e+00
5.5882176818563281e+00 0.0000000000000000e+00 0.0000000000000000e+00
5.5882596926397410e+00 0.0000000000000000e+00 0.0000000000000000e+00
5.5883036573679430e+00 0.0000000000000000e+00 0.0000000000000000e+00
5.5883495299689736e+00 0.0000000000000000e+00 0.0000000000000000e+00
5.5883974904874485e+00 0.0000000000000000e+00 0.0000000000000000e+00
5.5884475957688311e+00 0.0000000000000000e+00 0.0000000000000000e+00
5.5884998741051293e+00 0.0000000000000000e+00 0.0000000000000000e+00
5.5885543391035446e+00 0.0000000000000000e+00 0.0000000000000000e+00
5.5886109955293914e+00 0.0000000000000000e+00 0.0000000000000000e+00
5.5886698417968868e+00 0.0000000000000000e+00 0.0000000000000000e+00
5.5887308711622516e+00 0.0000000000000000e+00 0.0000000000000000e+00
5.5887940768138380e+00 0.0000000000000000e+00 0.0000000000000000e+00
5.5888594511185392e+00 0.0000000000000000e+00 0.0000000000000000e+00
5.5889269845841660e+00 0.0000000000000000e+00 0.0000000000000000e+00
5.5889966689732100e+00 0.0000000000000000e+00 0.0000000000000000e+00
5.5890684945860416e+00 0.0000000000000000e+00 0.0000000000000000e+00
5.5891424511042409e+00 0.0000000000000000e+00 0.0000000000000000e+00
5.5892185295181349e+00 0.0000000000000000e+00 0.0000000000000000e+00
5.5892967214202436e+00 0.0000000000000000e+00 0.0000000000000000e+00
5.5893770173992081e+00 0.0000000000000000e+00 0.0000000000000000e+00
5.5894594081830711e+00 0.0000000000000000e+00 0.0000000000000000e+00
5.5895438854317474e+00 0.0000000000000000e+00 0.0000000000000000e+00
5.5896304402871708e+00 0.0000000000000000e+00 0.0000000000000000e+00
5.5897190636182046e+00 0.0000000000000000e+00 0.0000000000000000e+00
5.5898097469358685e+00 0.0000000000000000e+00 0.0000000000000000e+00
5.5899024820737022e+00 0.0000000000000000e+00 0.0000000000000000e+00
5.5899972605866521e+00 0.0000000000000000e+00 0.0000000000000000e+00
5.5900940743650427e+00 0.0000000000000000e+00 0.0000000000000000e+00
5.5901929154236161e+00 0.0000000000000000e+00 0.0000000000000000e+00
5.5902937757738274e+00 0.0000000000000000e+00 0.0000000000000000e+00
5.5903966477076068e+00 0.0000000000000000e+00 0.0000000000000000e+00
5.5905015235471813e+00 0.0000000000000000e+00 0.0000000000000000e+00
5.5906083955516053e+00 0.0000000000000000e+00 0.0000000000000000e+00
5.5907172562378893e+00 0.0000000000000000e+00 0.0000000000000000e+00
5.5908280982274103e+00 0.0000000000000000e+00 0.0000000000000000e+00
5.5909409143040909e+00 0.0000000000000000e+00 0.0000000000000000e+00
5.5910556972757233e+00 0.0000000000000000e+00 0.0000000000000000e+00
5.5911724399475462e+00 0.0000000000000000e+00 0.0000000000000000e+00
5.5912911355953856e+00 0.0000000000000000e+00 0.0000000000000000e+00
5.5914117771754519e+00 0.0000000000000000e+00 0.0000000000000000e+00
5.5915343582999890e+00 0.0000000000000000e+00 0.0000000000000000e+00
5.5916588718010916e+00 0.0000000000000000e+00 0.0000000000000000e+00
5.5917853111504412e+00 0.0000000000000000e+00 0.0000000000000000e+00
5.5919136707373758e+00 0.0000000000000000e+00 0.0000000000000000e+00
5.5920439442939873e+00 0.0000000000000000e+00 0.0000000000000000e+00
5.5921761255441504e+00 0.0000000000000000e+00 0.0000000000000000e+00
5.5923102079149940e+00 0.0000000000000000e+00 0.0000000000000000e+00
5.5924461863825288e+00 0.0000000000000000e+00 0.0000000000000000e+00
5.5925840550657808e+00 0.0000000000000000e+00 0.0000000000000000e+00
5.5927238095171266e+00 0.0000000000000000e+00 0.0000000000000000e+00
5.5928654439378187e+00 0.0000000000000000e+00 0.0000000000000000e+00
5.5930089510594989e+00 0.0000000000000000e+00 0.0000000000000000e+00
5.5931543256028942e+00 0.0000000000000000e+00 0.0000000000000000e+00
5.5933015624167961e+00 0.0000000000000000e+00 0.0000000000000000e+00
5.5934506598831781e+00 0.0000000000000000e+00 0.0000000000000000e+00
5.5936016086976723e+00 0.0000000000000000e+00 0.0000000000000000e+00
5.5937544125968177e+00 0.0000000000000000e+00 0.0000000000000000e+00
5.5939090448150193e+00 0.0000000000000000e+00 0.0000000000000000e+00
5.5940655492884899e+00 0.0000000000000000e+00 0.0000000000000000e+00
5.5942238100776329e+00 0.0000000000000000e+00 0.0000000000000000e+00
5.5943840772234559e+00 0.0000000000000000e+00 0.0000000000000000e+00
5.5945457746420972e+00 0.0000000000000000e+00 0.0000000000000000e+00
5.5947101510907560e+00 0.0000000000000000e+00 0.0000000000000000e+00
5.5948745275394147e+00 0.0000000000000000e+00 0.0000000000000000e+00


SCALARS pressure float
LOOKUP_TABLE default
3.2985483731775012e+01
3.2672949240554885e+01
3.2360414749334751e+01
3.2047703363055639e+01
3.1734708876397626e+01
3.1421347068134864e+01
3.1107561680960174e+01
3.0793317477455368e+01
3.0478575049816012e+01
3.0163335443536987e+01
2.9847619560812316e+01
2.9531427768724249e+01
2.9214758495045590e+01
2.8897614199488835e+01
2.8579990909649361e+01
2.8261886477842619e+01
2.7943302114908352e+01
2.7624254877882873e+01
2.7304768394833559e+01
2.6984845767142339e+01
2.6664484365716596e+01
2.6343681237261610e+01
2.6022432147917343e+01
2.5700730690761478e+01
2.5378576117202797e+01
2.5056000538105728e+01
2.4733014513073698e+01
2.4409607870151948e+01
2.4085785591078171e+01
2.3761552309029980e+01
2.3436916470416616e+01
2.3111886131096227e+01
2.2786464522754692e+01
2.2460653721519773e+01
2.2134454260497822e+01
2.1807870738737908e+01
2.1480909325450479e+01
2.1153575477727230e+01
2.0825874456575502e+01
2.0497811021773003e+01
2.0169390711993060e+01
1.9840618324260650e+01
1.9511497789769805e+01
1.9182033446704065e+01
1.8852229898110032e+01
1.8522091903018243e+01
1.8191624317200674e+01
1.7860832064131387e+01
1.7529720120432813e+01
1.7198293489094254e+01
1.6866557195763189e+01
1.6534516291534597e+01
1.6202175839925474e+01
1.5869540925584044e+01
1.5536616652118720e+01
1.5203408133110855e+01
1.4869920493157602e+01
1.4536158874622016e+01
1.4202128433785751e+01
1.3867834336808787e+01
1.3533281764758280e+01
1.3198475913455754e+01
1.2863421989084678e+01
1.2528125208427564e+01
1.2192590801420753e+01
1.1856824008830735e+01
1.1520830082504801e+01
1.1184614285701201e+01
1.0848181891787673e+01
1.0511538184811013e+01
1.0174688459810429e+01
9.8376380212920225e+00
9.5003921833494083e+00
9.1629562691929909e+00
8.8253356115158521e+00
8.4875355523827416e+00
8.1495614410362691e+00
7.8114186366532961e+00
7.4731125044042317e+00
7.1346484207205796e+00
6.7960317679428703e+00
6.4572679319346555e+00
6.1183623077123617e+00
5.7793202981497380e+00
5.4401473148689314e+00
5.1008487701197227e+00
4.7614300841817387e+00
4.4218966772145016e+00
4.0822539813673275e+00
3.7425074423728630e+00
3.4026625046642427e+00
3.0627246143801705e+00
2.7226992073227270e+00
2.3825917513129302e+00
2.0424076771800670e+00
1.7021525201659693e+00
1.3618315923259243e+00
1.0214507062735951e+00
6.8101457217344696e-01
3.4053029943076080e-01
0.0000000000000000e+00


SCALARS diameter float
LOOKUP_TABLE default
1.0029944839283897e+00
1.0029593116936277e+00
1.0029271909538175e+00
1.0028982025319244e+00
1.0028706752298471e+00
1.0028430365557750e+00
1.0028155784174970e+00
1.0027868139655216e+00
1.0027566937481744e+00
1.0027280200312598e+00
1.0026996267601000e+00
1.0026711259011771e+00
1.0026425612730738e+00
1.0026138205412369e+00
1.0025843868717874e+00
1.0025546540599028e+00
1.0025247770440753e+00
1.0024963917326781e+00
1.0024684067384502e+00
1.0024405495140853e+00
1.0024125633584813e+00
1.0023842014017688e+00
1.0023547943417748e+00
1.0023241370672973e+00
1.0022937034327706e+00
1.0022653297120114e+00
1.0022360393975871e+00
1.0022066346752088e+00
1.0021772040414232e+00
1.0021477810362482e+00
1.0021187677088206e+00
1.0020897077702784e+00
1.0020606118335558e+00
1.0020311676562426e+00
1.0020015329978786e+00
1.0019718710842522e+00
1.0019421794622874e+00
1.0019124571238083e+00
1.0018827043319785e+00
1.0018529271068850e+00
1.0018232079820224e+00
1.0017934562916941e+00
1.0017636720648087e+00
1.0017338569405085e+00
1.0017040115776050e+00
1.0016741363499353e+00
1.0016442316803551e+00
1.0016142985826499e+00
1.0015843377421607e+00
1.0015543489884806e+00
1.0015243333691977e+00
1.0014942910258726e+00
1.0014642224651484e+00
1.0014341286670811e+00
1.0014040099742780e+00
1.0013738666286376e+00
1.0013436991286544e+00
1.0013135082547573e+00
1.0012832942351286e+00
1.0012530575797347e+00
1.0012227989655051e+00
1.0011925188745396e+00
1.0011622176681283e+00
1.0011318958964217e+00
1.0011015540755177e+00
1.0010711926160927e+00
1.0010408120719645e+00
1.0010104128792878e+00
1.0009799955233045e+00
1.0009495605277077e+00
1.0009191084150710e+00
1.0008886396235119e+00
1.0008581546856383e+00
1.0008276540440411e+00
1.0007971382877390e+00
1.0007666078357791e+00
1.0007360631850595e+00
1.0007055048842328e+00
1.0006749333149512e+00
1.0006443493700459e+00
1.0006137529493693e+00
1.0005831447848281e+00
1.0005525253165781e+00
1.0005218952583448e+00
1.0004912549439469e+00
1.0004606045111579e+00
1.0004299448096421e+00
1.0003992756026074e+00
1.0003685987773980e+00
1.0003379140126725e+00
1.0003072222943310e+00
1.0002765228470318e+00
1.0002458170147666e+00
1.0002151050282539e+00
1.0001843879033951e+00
1.0001536660225741e+00
1.0001229396837377e+00
1.0000922094112261e+00
1.0000614759609168e+00
1.0000307401891977e+00
1.0000000011113246e+00


SCALARS iters float
LOOKUP_TABLE default
3.0000000000000000e+00
3.0000000000000000e+00
3.0000000000000000e+00
3.0000000000000000e+00
3.0000000000000000e+00
3.0000000000000000e+00
3.0000000000000000e+00
3.0000000000000000e+00
3.0000000000000000e+00
3.0000000000000000e+00
3.0000000000000000e+00
3.0000000000000000e+00
3.0000000000000000e+00
3.0000000000000000e+00
3.0000000000000000e+00
3.0000000000000000e+00
3.0000000000000000e+00
3.0000000000000000e+00
3.0000000000000000e+00
3.0000000000000000e+00
3.0000000000000000e+00
3.0000000000000000e+00
3.0000000000000000e+00
3.0000000000000000e+00
3.0000000000000000e+00
3.0000000000000000e+00
3.0000000000000000e+00
3.0000000000000000e+00
3.0000000000000000e+00
3.0000000000000000e+00
3.0000000000000000e+00
3.0000000000000000e+00
3.0000000000000000e+00
3.0000000000000000e+00
3.0000000000000000e+00
3.0000000000000000e+00
3.0000000000000000e+00
3.0000000000000000e+00
3.0000000000000000e+00
3.0000000000000000e+00
3.0000000000000000e+00
3.0000000000000000e+00
3.0000000000000000e+00
3.0000000000000000e+00
3.0000000000000000e+00
3.0000000000000000e+00
3.0000000000000000e+00
3.0000000000000000e+00
3.0000000000000000e+00
3.0000000000000000e+00
3.0000000000000000e+00
3.0000000000000000e+00
3.0000000000000000e+00
3.0000000000000000e+00
3.0000000000000000e+00
3.0000000000000000e+00
3.0000000000000000e+00
3.0000000000000000e+00
3.0000000000000000e+00
3.0000000000000000e+00
3.0000000000000000e+00
3.0000000000000000e+00
3.0000000000000000e+00
3.0000000000000000e+00
3.0000000000000000e+00
3.0000000000000000e+00
3.0000000000000000e+00
3.0000000000000000e+00
3.0000000000000000e+00
3.0000000000000000e+00
3.0000000000000000e+00
3.0000000000000000e+00
3.0000000000000000e+00
3.0000000000000000e+00
3.0000000000000000e+00
3.0000000000000000e+00
3.0000000000000000e+00
3.0000000000000000e+00
3.0000000000000000e+00
3.0000000000000000e+00
3.0000000000000000e+00
3.0000000000000000e+00
3.0000000000000000e+00
3.0000000000000000e+00
3.0000000000000000e+00
3.0000000000000000e+00
3.0000000000000000e+00
3.0000000000000000e+00
3.0000000000000000e+00
3.0000000000000000e+00
3.0000000000000000e+00
3.0000000000000000e+00
3.0000000000000000e+00
3.0000000000000000e+00
3.0000000000000000e+00
3.0000000000000000e+00
3.0000000000000000e+00
3.0000000000000000e+00
3.0000000000000000e+00
3.0000000000000000e+00
3.0000000000000000e+00


