# vtk DataFile Version 2.0

ASCII

DATASET UNSTRUCTURED_GRID

POINTS 101 float

0.0000000000000000e+00 0.0000000000000000e+00 0.0000000000000000e+00
1.0000000000000001e-01 0.0000000000000000e+00 0.0000000000000000e+00
2.0000000000000001e-01 0.0000000000000000e+00 0.0000000000000000e+00
3.0000000000000004e-01 0.0000000000000000e+00 0.0000000000000000e+00
4.0000000000000002e-01 0.0000000000000000e+00 0.0000000000000000e+00
5.0000000000000000e-01 0.0000000000000000e+00 0.0000000000000000e+00
6.0000000000000009e-01 0.0000000000000000e+00 0.0000000000000000e+00
7.0000000000000007e-01 0.0000000000000000e+00 0.0000000000000000e+00
8.0000000000000004e-01 0.0000000000000000e+00 0.0000000000000000e+00
9.0000000000000002e-01 0.0000000000000000e+00 0.0000000000000000e+00
1.0000000000000000e+00 0.0000000000000000e+00 0.0000000000000000e+00
1.1000000000000001e+00 0.0000000000000000e+00 0.0000000000000000e+00
1.2000000000000002e+00 0.0000000000000000e+00 0.0000000000000000e+00
1.3000000000000000e+00 0.0000000000000000e+00 0.0000000000000000e+00
1.4000000000000001e+00 0.0000000000000000e+00 0.0000000000000000e+00
1.5000000000000000e+00 0.0000000000000000e+00 0.0000000000000000e+00
1.6000000000000001e+00 0.0000000000000000e+00 0.0000000000000000e+00
1.7000000000000002e+00 0.0000000000000000e+00 0.0000000000000000e+00
1.8000000000000000e+00 0.0000000000000000e+00 0.0000000000000000e+00
1.9000000000000001e+00 0.0000000000000000e+00 0.0000000000000000e+00
2.0000000000000000e+00 0.0000000000000000e+00 0.0000000000000000e+00
2.1000000000000001e+00 0.0000000000000000e+00 0.0000000000000000e+00
2.2000000000000002e+00 0.0000000000000000e+00 0.0000000000000000e+00
2.3000000000000003e+00 0.0000000000000000e+00 0.0000000000000000e+00
2.4000000000000004e+00 0.0000000000000000e+00 0.0000000000000000e+00
2.5000000000000000e+00 0.0000000000000000e+00 0.0000000000000000e+00
2.6000000000000001e+00 0.0000000000000000e+00 0.0000000000000000e+00
2.7000000000000002e+00 0.0000000000000000e+00 0.0000000000000000e+00
2.8000000000000003e+00 0.0000000000000000e+00 0.0000000000000000e+00
2.9000000000000004e+00 0.0000000000000000e+00 0.0000000000000000e+00
3.0000000000000000e+00 0.0000000000000000e+00 0.0000000000000000e+00
3.1000000000000001e+00 0.0000000000000000e+00 0.0000000000000000e+00
3.2000000000000002e+00 0.0000000000000000e+00 0.0000000000000000e+00
3.3000000000000003e+00 0.0000000000000000e+00 0.0000000000000000e+00
3.4000000000000004e+00 0.0000000000000000e+00 0.0000000000000000e+00
3.5000000000000000e+00 0.0000000000000000e+00 0.0000000000000000e+00
3.6000000000000001e+00 0.0000000000000000e+00 0.0000000000000000e+00
3.7000000000000002e+00 0.0000000000000000e+00 0.0000000000000000e+00
3.8000000000000003e+00 0.0000000000000000e+00 0.0000000000000000e+00
3.9000000000000004e+00 0.0000000000000000e+00 0.0000000000000000e+00
4.0000000000000000e+00 0.0000000000000000e+00 0.0000000000000000e+00
4.1000000000000005e+00 0.0000000000000000e+00 0.0000000000000000e+00
4.2000000000000002e+00 0.0000000000000000e+00 0.0000000000000000e+00
4.2999999999999998e+00 0.0000000000000000e+00 0.0000000000000000e+00
4.4000000000000004e+00 0.0000000000000000e+00 0.0000000000000000e+00
4.5000000000000000e+00 0.0000000000000000e+00 0.0000000000000000e+00
4.6000000000000005e+00 0.0000000000000000e+00 0.0000000000000000e+00
4.7000000000000002e+00 0.0000000000000000e+00 0.0000000000000000e+00
4.8000000000000007e+00 0.0000000000000000e+00 0.0000000000000000e+00
4.9000000000000004e+00 0.0000000000000000e+00 0.0000000000000000e+00
5.0000000000000000e+00 0.0000000000000000e+00 0.0000000000000000e+00
5.1000000000000005e+00 0.0000000000000000e+00 0.0000000000000000e+00
5.2000000000000002e+00 0.0000000000000000e+00 0.0000000000000000e+00
5.3000000000000007e+00 0.0000000000000000e+00 0.0000000000000000e+00
5.4000000000000004e+00 0.0000000000000000e+00 0.0000000000000000e+00
5.5000000000000000e+00 0.0000000000000000e+00 0.0000000000000000e+00
5.6000000000000005e+00 0.0000000000000000e+00 0.0000000000000000e+00
5.7000000000000002e+00 0.0000000000000000e+00 0.0000000000000000e+00
5.8000000000000007e+00 0.0000000000000000e+00 0.0000000000000000e+00
5.9000000000000004e+00 0.0000000000000000e+00 0.0000000000000000e+00
6.0000000000000000e+00 0.0000000000000000e+00 0.0000000000000000e+00
6.1000000000000005e+00 0.0000000000000000e+00 0.0000000000000000e+00
6.2000000000000002e+00 0.0000000000000000e+00 0.0000000000000000e+00
6.3000000000000007e+00 0.0000000000000000e+00 0.0000000000000000e+00
6.4000000000000004e+00 0.0000000000000000e+00 0.0000000000000000e+00
6.5000000000000000e+00 0.0000000000000000e+00 0.0000000000000000e+00
6.6000000000000005e+00 0.0000000000000000e+00 0.0000000000000000e+00
6.7000000000000002e+00 0.0000000000000000e+00 0.0000000000000000e+00
6.8000000000000007e+00 0.0000000000000000e+00 0.0000000000000000e+00
6.9000000000000004e+00 0.0000000000000000e+00 0.0000000000000000e+00
7.0000000000000000e+00 0.0000000000000000e+00 0.0000000000000000e+00
7.1000000000000005e+00 0.0000000000000000e+00 0.0000000000000000e+00
7.2000000000000002e+00 0.0000000000000000e+00 0.0000000000000000e+00
7.3000000000000007e+00 0.0000000000000000e+00 0.0000000000000000e+00
7.4000000000000004e+00 0.0000000000000000e+00 0.0000000000000000e+00
7.5000000000000000e+00 0.0000000000000000e+00 0.0000000000000000e+00
7.6000000000000005e+00 0.0000000000000000e+00 0.0000000000000000e+00
7.7000000000000002e+00 0.0000000000000000e+00 0.0000000000000000e+00
7.8000000000000007e+00 0.0000000000000000e+00 0.0000000000000000e+00
7.9000000000000004e+00 0.0000000000000000e+00 0.0000000000000000e+00
8.0000000000000000e+00 0.0000000000000000e+00 0.0000000000000000e+00
8.0999999999999996e+00 0.0000000000000000e+00 0.0000000000000000e+00
8.2000000000000011e+00 0.0000000000000000e+00 0.0000000000000000e+00
8.3000000000000007e+00 0.0000000000000000e+00 0.0000000000000000e+00
8.4000000000000004e+00 0.0000000000000000e+00 0.0000000000000000e+00
8.5000000000000000e+00 0.0000000000000000e+00 0.0000000000000000e+00
8.5999999999999996e+00 0.0000000000000000e+00 0.0000000000000000e+00
8.7000000000000011e+00 0.0000000000000000e+00 0.0000000000000000e+00
8.8000000000000007e+00 0.0000000000000000e+00 0.0000000000000000e+00
8.9000000000000004e+00 0.0000000000000000e+00 0.0000000000000000e+00
9.0000000000000000e+00 0.0000000000000000e+00 0.0000000000000000e+00
9.0999999999999996e+00 0.0000000000000000e+00 0.0000000000000000e+00
9.2000000000000011e+00 0.0000000000000000e+00 0.0000000000000000e+00
9.3000000000000007e+00 0.0000000000000000e+00 0.0000000000000000e+00
9.4000000000000004e+00 0.0000000000000000e+00 0.0000000000000000e+00
9.5000000000000000e+00 0.0000000000000000e+00 0.0000000000000000e+00
9.6000000000000014e+00 0.0000000000000000e+00 0.0000000000000000e+00
9.7000000000000011e+00 0.0000000000000000e+00 0.0000000000000000e+00
9.8000000000000007e+00 0.0000000000000000e+00 0.0000000000000000e+00
9.9000000000000004e+00 0.0000000000000000e+00 0.0000000000000000e+00
1.0000000000000000e+01 0.0000000000000000e+00 0.0000000000000000e+00

POINT_DATA 101

VECTORS velocity float
6.6176987797462692e+00 0.0000000000000000e+00 0.0000000000000000e+00
6.6178055783317626e+00 0.0000000000000000e+00 0.0000000000000000e+00
6.6179787862339872e+00 0.0000000000000000e+00 0.0000000000000000e+00
6.6181906756094211e+00 0.0000000000000000e+00 0.0000000000000000e+00
6.6184243399860154e+00 0.0000000000000000e+00 0.0000000000000000e+00
6.6186693318048206e+00 0.0000000000000000e+00 0.0000000000000000e+00
6.6189196075255126e+00 0.0000000000000000e+00 0.0000000000000000e+00
6.6191719684379988e+00 0.0000000000000000e+00 0.0000000000000000e+00
6.6194234013876425e+00 0.0000000000000000e+00 0.0000000000000000e+00
6.6196717503757743e+00 0.0000000000000000e+00 0.0000000000000000e+00
6.6199165256302317e+00 0.0000000000000000e+00 0.0000000000000000e+00
6.6201572210274930e+00 0.0000000000000000e+00 0.0000000000000000e+00
6.6203934977371484e+00 0.0000000000000000e+00 0.0000000000000000e+00
6.6206252083639914e+00 0.0000000000000000e+00 0.0000000000000000e+00
6.6208520734143086e+00 0.0000000000000000e+00 0.0000000000000000e+00
6.6210744118871441e+00 0.0000000000000000e+00 0.0000000000000000e+00
6.6212921708358152e+00 0.0000000000000000e+00 0.0000000000000000e+00
6.6215046623155240e+00 0.0000000000000000e+00 0.0000000000000000e+00
6.6217121995919568e+00 0.0000000000000000e+00 0.0000000000000000e+00
6.6219147239349843e+00 0.0000000000000000e+00 0.0000000000000000e+00
6.6221122222891076e+00 0.0000000000000000e+00 0.0000000000000000e+00
6.6223046777847632e+00 0.0000000000000000e+00 0.0000000000000000e+00
6.6224920730029027e+00 0.0000000000000000e+00 0.0000000000000000e+00
6.6226743907102765e+00 0.0000000000000000e+00 0.0000000000000000e+00
6.6228516137720614e+00 0.0000000000000000e+00 0.0000000000000000e+00
6.6230237251491397e+00 0.0000000000000000e+00 0.0000000000000000e+00
6.6231907081004593e+00 0.0000000000000000e+00 0.0000000000000000e+00
6.6233525461853340e+00 0.0000000000000000e+00 0.0000000000000000e+00
6.6235092233493402e+00 0.0000000000000000e+00 0.0000000000000000e+00
6.6236607238527325e+00 0.0000000000000000e+00 0.0000000000000000e+00
6.6238070323958143e+00 0.0000000000000000e+00 0.0000000000000000e+00
6.6239481340243511e+00 0.0000000000000000e+00 0.0000000000000000e+00
6.6240840143655717e+00 0.0000000000000000e+00 0.0000000000000000e+00
6.6242146589183228e+00 0.0000000000000000e+00 0.0000000000000000e+00
6.6243400551187639e+00 0.0000000000000000e+00 0.0000000000000000e+00
6.6244601865015129e+00 0.0000000000000000e+00 0.0000000000000000e+00
6.6245750420684715e+00 0.0000000000000000e+00 0.0000000000000000e+00
6.6246846176001348e+00 0.0000000000000000e+00 0.0000000000000000e+00
6.6247888945195808e+00 0.0000000000000000e+00 0.0000000000000000e+00
6.6248878572347385e+00 0.0000000000000000e+00 0.0000000000000000e+00
6.6249814968949590e+00 0.0000000000000000e+00 0.0000000000000000e+00
6.6250698028897936e+00 0.0000000000000000e+00 0.0000000000000000e+00
6.6251527649570603e+00 0.0000000000000000e+00 0.0000000000000000e+00
6.6252303733306110e+00 0.0000000000000000e+00 0.0000000000000000e+00
6.6253026184218742e+00 0.0000000000000000e+00 0.0000000000000000e+00
6.6253694915780246e+00 0.0000000000000000e+00 0.0000000000000000e+00
6.6254309842743098e+00 0.0000000000000000e+00 0.0000000000000000e+00
6.6254870876019885e+00 0.0000000000000000e+00 0.0000000000000000e+00
6.6255377938327564e+00 0.0000000000000000e+00 0.0000000000000000e+00
6.6255830956803647e+00 0.0000000000000000e+00 0.0000000000000000e+00
6.6256229865636556e+00 0.0000000000000000e+00 0.0000000000000000e+00
6.6256574601976013e+00 0.0000000000000000e+00 0.0000000000000000e+00
6.6256865104907652e+00 0.0000000000000000e+00 0.0000000000000000e+00
6.6257101318876828e+00 0.0000000000000000e+00 0.0000000000000000e+00
6.6257283193455336e+00 0.0000000000000000e+00 0.0000000000000000e+00
6.6257410682125295e+00 0.0000000000000000e+00 0.0000000000000000e+00
6.6257483743304251e+00 0.0000000000000000e+00 0.0000000000000000e+00
6.6257502338844034e+00 0.0000000000000000e+00 0.0000000000000000e+00
6.6257466433645202e+00 0.0000000000000000e+00 0.0000000000000000e+00
6.6257376001775725e+00 0.0000000000000000e+00 0.0000000000000000e+00
6.6257231021553551e+00 0.0000000000000000e+00 0.0000000000000000e+00
6.6257031474180312e+00 0.0000000000000000e+00 0.0000000000000000e+00
6.6256777345269953e+00 0.0000000000000000e+00 0.0000000000000000e+00
6.6256468625963620e+00 0.0000000000000000e+00 0.0000000000000000e+00
6.6256105311681983e+00 0.0000000000000000e+00 0.0000000000000000e+00
6.6255687402592587e+00 0.0000000000000000e+00 0.0000000000000000e+00
6.6255214902832105e+00 0.0000000000000000e+00 0.0000000000000000e+00
6.6254687821217813e+00 0.0000000000000000e+00 0.0000000000000000e+00
6.6254106172673195e+00 0.0000000000000000e+00 0.0000000000000000e+00
6.6253469976061146e+00 0.0000000000000000e+00 0.0000000000000000e+00
6.6252779255442524e+00 0.0000000000000000e+00 0.0000000000000000e+00
6.6252034039463368e+00 0.0000000000000000e+00 0.0000000000000000e+00
6.6251234361409610e+00 0.0000000000000000e+00 0.0000000000000000e+00
6.6250380259573891e+00 0.0000000000000000e+00 0.0000000000000000e+00
6.6249471777196183e+00 0.0000000000000000e+00 0.0000000000000000e+00
6.6248508962099422e+00 0.0000000000000000e+00 0.0000000000000000e+00
6.6247491868301918e+00 0.0000000000000000e+00 0.0000000000000000e+00
6.6246420549785165e+00 0.0000000000000000e+00 0.0000000000000000e+00
6.6245295077515935e+00 0.0000000000000000e+00 0.0000000000000000e+00
6.6244115494850746e+00 0.0000000000000000e+00 0.0000000000000000e+00
6.6242881940190870e+00 0.0000000000000000e+00 0.0000000000000000e+00
6.6241594304960465e+00 0.0000000000000000e+00 0.0000000000000000e+00
6.6240253180161943e+00 0.0000000000000000e+00 0.0000000000000000e+00
6.6238858478265739e+00 0.0000000000000000e+00 0.0000000000000000e+00
6.6237409292308653e+00 0.0000000000000000e+00 0.0000000000000000e+00
6.6235906432412710e+00 0.0000000000000000e+00 0.0000000000000000e+00
6.6234350244338573e+00 0.0000000000000000e+00 0.0000000000000000e+00
6.6232741110586737e+00 0.0000000000000000e+00 0.0000000000000000e+00
6.6231078802860770e+00 0.0000000000000000e+00 0.0000000000000000e+00
6.6229362994319851e+00 0.0000000000000000e+00 0.0000000000000000e+00
6.6227594236363343e+00 0.0000000000000000e+00 0.0000000000000000e+00
6.6225772553139173e+00 0.0000000000000000e+00 0.0000000000000000e+00
6.6223898135905603e+00 0.0000000000000000e+00 0.0000000000000000e+00
6.6221970972324620e+00 0.0000000000000000e+00 0.0000000000000000e+00
6.6219991572581964e+00 0.0000000000000000e+00 0.0000000000000000e+00
6.6217959172648531e+00 0.0000000000000000e+00 0.0000000000000000e+00
6.6215876168111683e+00 0.0000000000000000e+00 0.0000000000000000e+00
6.6213737251206215e+00 0.0000000000000000e+00 0.0000000000000000e+00
6.6211555730917553e+00 0.0000000000000000e+00 0.0000000000000000e+00
6.6209300426581681e+00 0.0000000000000000e+00 0.0000000000000000e+00
6.6207045122245800e+00 0.0000000000000000e+00 0.0000000000000000e+00


SCALARS pressure float
LOOKUP_TABLE default
-3.8489267513003632e+01
-3.8137660845980804e+01
-3.7786054178957983e+01
-3.7434059665036742e+01
-3.7081443801047641e+01
-3.6728067660718139e+01
-3.6373849342082764e+01
-3.6018743777068273e+01
-3.5662730162212348e+01
-3.5305795140795823e+01
-3.4947930732966611e+01
-3.4589138384601455e+01
-3.4229422305368992e+01
-3.3868788274430244e+01
-3.3507243453803468e+01
-3.3144794723331884e+01
-3.2781451889108041e+01
-3.2417223973231032e+01
-3.2052116464162992e+01
-3.1686138585262018e+01
-3.1319298976761569e+01
-3.0951606344650774e+01
-3.0583069421180021e+01
-3.0213696966342628e+01
-2.9843497771098853e+01
-2.9472480657444471e+01
-2.9100654477952009e+01
-2.8728028116227101e+01
-2.8354610486736917e+01
-2.7980410534883063e+01
-2.7605437236406058e+01
-2.7229699597551267e+01
-2.6853206654388369e+01
-2.6475967473586305e+01
-2.6097991148824931e+01
-2.5719286809972882e+01
-2.5339863596132751e+01
-2.4959730693223008e+01
-2.4578897355675643e+01
-2.4197372806600509e+01
-2.3815166287851739e+01
-2.3432287096484014e+01
-2.3048744555542577e+01
-2.2664548014514210e+01
-2.2279706849860041e+01
-2.1894230463456992e+01
-2.1508128285808429e+01
-2.1121409772823750e+01
-2.0734084401841791e+01
-2.0346161678253861e+01
-1.9957651133574760e+01
-1.9568562325905823e+01
-1.9178904838164254e+01
-1.8788688276683665e+01
-1.8397922272209854e+01
-1.8006616480016788e+01
-1.7614780579091502e+01
-1.7222424272410432e+01
-1.6829557285623860e+01
-1.6436189367012709e+01
-1.6042330290322411e+01
-1.5647989852641707e+01
-1.5253177872881103e+01
-1.4857904191885813e+01
-1.4462178672898034e+01
-1.4066011200946427e+01
-1.3669411682691482e+01
-1.3272390045808896e+01
-1.2874956238961504e+01
-1.2477120232364983e+01
-1.2078892016747304e+01
-1.1680281603466359e+01
-1.1281299024081965e+01
-1.0881954330068480e+01
-1.0482257592737151e+01
-1.0082218903023335e+01
-9.6818483710622250e+00
-9.2811561267253371e+00
-8.8801523164357761e+00
-8.4788471106249084e+00
-8.0772506831978976e+00
-7.6753732673958810e+00
-7.2732249988515711e+00
-6.8708163470642196e+00
-6.4681575727268221e+00
-6.0652584407142003e+00
-5.6621294056275335e+00
-5.2587809451523650e+00
-4.8552235888031712e+00
-4.4514675896576579e+00
-4.0475230506200344e+00
-3.6434004662580839e+00
-3.2391102137546555e+00
-2.8346627161344062e+00
-2.4300683333648179e+00
-2.0253376298714403e+00
-1.6204807205735985e+00
-1.2155088611048839e+00
-8.1043061885740919e-01
-4.0526094438764787e-01
0.0000000000000000e+00


SCALARS diameter float
LOOKUP_TABLE default
9.9653523495035945e-01
9.9656682186127732e-01
9.9659841126172477e-01
9.9663003747932088e-01
9.9666172028685951e-01
9.9669347146422815e-01
9.9672529575017388e-01
9.9675698535324075e-01
9.9678869800984626e-01
9.9682076021906652e-01
9.9685290679536132e-01
9.9688513968569692e-01
9.9691745799776987e-01
9.9694986141425312e-01
9.9698234816967513e-01
9.9701492000276781e-01
9.9704740192612418e-01
9.9708016010128464e-01
9.9711297198971183e-01
9.9714586654363258e-01
9.9717884047540395e-01
9.9721189284501577e-01
9.9724502286754946e-01
9.9727822969032232e-01
9.9731151246363359e-01
9.9734487041788067e-01
9.9737830275694550e-01
9.9741180870262436e-01
9.9744538745850986e-01
9.9747903823914275e-01
9.9751276025866409e-01
9.9754655270704740e-01
9.9758041479010739e-01
9.9761434569687968e-01
9.9764834462164609e-01
9.9768241075792696e-01
9.9771654433164425e-01
9.9775074086441828e-01
9.9778500199487752e-01
9.9781932863765033e-01
9.9785371839330395e-01
9.9788817044025468e-01
9.9792268396121175e-01
9.9795725811072378e-01
9.9799189204460936e-01
9.9802658493071661e-01
9.9806133574947820e-01
9.9809614401042079e-01
9.9813100874071725e-01
9.9816592912484070e-01
9.9820090421125529e-01
9.9823593310137770e-01
9.9827101500939319e-01
9.9830614908853144e-01
9.9834133446928108e-01
9.9837657028874938e-01
9.9841185570378854e-01
9.9844718983122871e-01
9.9848257191089251e-01
9.9851800096966259e-01
9.9855347607470690e-01
9.9858899637336684e-01
9.9862456101814667e-01
9.9866016911788213e-01
9.9869581978727140e-01
9.9873151215653178e-01
9.9876724533678629e-01
9.9880301848199615e-01
9.9883883065789791e-01
9.9887468098484944e-01
9.9891056856099525e-01
9.9894649248611900e-01
9.9898245186885737e-01
9.9901844580399668e-01
9.9905447338551545e-01
9.9909053370576850e-01
9.9912662584660361e-01
9.9916274891933465e-01
9.9919890201514516e-01
9.9923508421532425e-01
9.9927129461164999e-01
9.9930753229847824e-01
9.9934379643336690e-01
9.9938006728995665e-01
9.9941639586157160e-01
9.9945274571018394e-01
9.9948910863503759e-01
9.9952548573833555e-01
9.9956187576462119e-01
9.9959830492740764e-01
9.9963474669000618e-01
9.9967120645529772e-01
9.9970768329896376e-01
9.9974417626648437e-01
9.9978068445192991e-01
9.9981720683375785e-01
9.9985374240615443e-01
9.9989029031382359e-01
9.9992685003010995e-01
9.9996342012250339e-01
1.0000000002638507e+00


SCALARS iters float
LOOKUP_TABLE default
3.0000000000000000e+00
3.0000000000000000e+00
3.0000000000000000e+00
3.0000000000000000e+00
3.0000000000000000e+00
3.0000000000000000e+00
3.0000000000000000e+00
3.0000000000000000e+00
3.0000000000000000e+00
3.0000000000000000e+00
3.0000000000000000e+00
3.0000000000000000e+00
3.0000000000000000e+00
3.0000000000000000e+00
3.0000000000000000e+00
3.0000000000000000e+00
3.0000000000000000e+00
3.0000000000000000e+00
3.0000000000000000e+00
3.0000000000000000e+00
3.0000000000000000e+00
3.0000000000000000e+00
3.0000000000000000e+00
3.0000000000000000e+00
3.0000000000000000e+00
3.0000000000000000e+00
3.0000000000000000e+00
3.0000000000000000e+00
3.0000000000000000e+00
3.0000000000000000e+00
3.0000000000000000e+00
3.0000000000000000e+00
3.0000000000000000e+00
3.0000000000000000e+00
3.0000000000000000e+00
3.0000000000000000e+00
3.0000000000000000e+00
3.0000000000000000e+00
3.0000000000000000e+00
3.0000000000000000e+00
3.0000000000000000e+00
3.0000000000000000e+00
3.0000000000000000e+00
3.0000000000000000e+00
3.0000000000000000e+00
3.0000000000000000e+00
3.0000000000000000e+00
3.0000000000000000e+00
3.0000000000000000e+00
3.0000000000000000e+00
3.0000000000000000e+00
3.0000000000000000e+00
3.0000000000000000e+00
3.0000000000000000e+00
3.0000000000000000e+00
3.0000000000000000e+00
3.0000000000000000e+00
3.0000000000000000e+00
3.0000000000000000e+00
3.0000000000000000e+00
3.0000000000000000e+00
3.0000000000000000e+00
3.0000000000000000e+00
3.0000000000000000e+00
3.0000000000000000e+00
3.0000000000000000e+00
3.0000000000000000e+00
3.0000000000000000e+00
3.0000000000000000e+00
3.0000000000000000e+00
3.0000000000000000e+00
3.0000000000000000e+00
3.0000000000000000e+00
3.0000000000000000e+00
3.0000000000000000e+00
3.0000000000000000e+00
3.0000000000000000e+00
3.0000000000000000e+00
3.0000000000000000e+00
3.0000000000000000e+00
3.0000000000000000e+00
3.0000000000000000e+00
3.0000000000000000e+00
3.0000000000000000e+00
3.0000000000000000e+00
3.0000000000000000e+00
3.0000000000000000e+00
3.0000000000000000e+00
3.0000000000000000e+00
3.0000000000000000e+00
3.0000000000000000e+00
3.0000000000000000e+00
3.0000000000000000e+00
3.0000000000000000e+00
3.0000000000000000e+00
3.0000000000000000e+00
3.0000000000000000e+00
3.0000000000000000e+00
3.0000000000000000e+00
3.0000000000000000e+00
3.0000000000000000e+00


