# vtk DataFile Version 2.0

ASCII

DATASET UNSTRUCTURED_GRID

POINTS 101 float

0.0000000000000000e+00 0.0000000000000000e+00 0.0000000000000000e+00
1.0000000000000001e-01 0.0000000000000000e+00 0.0000000000000000e+00
2.0000000000000001e-01 0.0000000000000000e+00 0.0000000000000000e+00
3.0000000000000004e-01 0.0000000000000000e+00 0.0000000000000000e+00
4.0000000000000002e-01 0.0000000000000000e+00 0.0000000000000000e+00
5.0000000000000000e-01 0.0000000000000000e+00 0.0000000000000000e+00
6.0000000000000009e-01 0.0000000000000000e+00 0.0000000000000000e+00
7.0000000000000007e-01 0.0000000000000000e+00 0.0000000000000000e+00
8.0000000000000004e-01 0.0000000000000000e+00 0.0000000000000000e+00
9.0000000000000002e-01 0.0000000000000000e+00 0.0000000000000000e+00
1.0000000000000000e+00 0.0000000000000000e+00 0.0000000000000000e+00
1.1000000000000001e+00 0.0000000000000000e+00 0.0000000000000000e+00
1.2000000000000002e+00 0.0000000000000000e+00 0.0000000000000000e+00
1.3000000000000000e+00 0.0000000000000000e+00 0.0000000000000000e+00
1.4000000000000001e+00 0.0000000000000000e+00 0.0000000000000000e+00
1.5000000000000000e+00 0.0000000000000000e+00 0.0000000000000000e+00
1.6000000000000001e+00 0.0000000000000000e+00 0.0000000000000000e+00
1.7000000000000002e+00 0.0000000000000000e+00 0.0000000000000000e+00
1.8000000000000000e+00 0.0000000000000000e+00 0.0000000000000000e+00
1.9000000000000001e+00 0.0000000000000000e+00 0.0000000000000000e+00
2.0000000000000000e+00 0.0000000000000000e+00 0.0000000000000000e+00
2.1000000000000001e+00 0.0000000000000000e+00 0.0000000000000000e+00
2.2000000000000002e+00 0.0000000000000000e+00 0.0000000000000000e+00
2.3000000000000003e+00 0.0000000000000000e+00 0.0000000000000000e+00
2.4000000000000004e+00 0.0000000000000000e+00 0.0000000000000000e+00
2.5000000000000000e+00 0.0000000000000000e+00 0.0000000000000000e+00
2.6000000000000001e+00 0.0000000000000000e+00 0.0000000000000000e+00
2.7000000000000002e+00 0.0000000000000000e+00 0.0000000000000000e+00
2.8000000000000003e+00 0.0000000000000000e+00 0.0000000000000000e+00
2.9000000000000004e+00 0.0000000000000000e+00 0.0000000000000000e+00
3.0000000000000000e+00 0.0000000000000000e+00 0.0000000000000000e+00
3.1000000000000001e+00 0.0000000000000000e+00 0.0000000000000000e+00
3.2000000000000002e+00 0.0000000000000000e+00 0.0000000000000000e+00
3.3000000000000003e+00 0.0000000000000000e+00 0.0000000000000000e+00
3.4000000000000004e+00 0.0000000000000000e+00 0.0000000000000000e+00
3.5000000000000000e+00 0.0000000000000000e+00 0.0000000000000000e+00
3.6000000000000001e+00 0.0000000000000000e+00 0.0000000000000000e+00
3.7000000000000002e+00 0.0000000000000000e+00 0.0000000000000000e+00
3.8000000000000003e+00 0.0000000000000000e+00 0.0000000000000000e+00
3.9000000000000004e+00 0.0000000000000000e+00 0.0000000000000000e+00
4.0000000000000000e+00 0.0000000000000000e+00 0.0000000000000000e+00
4.1000000000000005e+00 0.0000000000000000e+00 0.0000000000000000e+00
4.2000000000000002e+00 0.0000000000000000e+00 0.0000000000000000e+00
4.2999999999999998e+00 0.0000000000000000e+00 0.0000000000000000e+00
4.4000000000000004e+00 0.0000000000000000e+00 0.0000000000000000e+00
4.5000000000000000e+00 0.0000000000000000e+00 0.0000000000000000e+00
4.6000000000000005e+00 0.0000000000000000e+00 0.0000000000000000e+00
4.7000000000000002e+00 0.0000000000000000e+00 0.0000000000000000e+00
4.8000000000000007e+00 0.0000000000000000e+00 0.0000000000000000e+00
4.9000000000000004e+00 0.0000000000000000e+00 0.0000000000000000e+00
5.0000000000000000e+00 0.0000000000000000e+00 0.0000000000000000e+00
5.1000000000000005e+00 0.0000000000000000e+00 0.0000000000000000e+00
5.2000000000000002e+00 0.0000000000000000e+00 0.0000000000000000e+00
5.3000000000000007e+00 0.0000000000000000e+00 0.0000000000000000e+00
5.4000000000000004e+00 0.0000000000000000e+00 0.0000000000000000e+00
5.5000000000000000e+00 0.0000000000000000e+00 0.0000000000000000e+00
5.6000000000000005e+00 0.0000000000000000e+00 0.0000000000000000e+00
5.7000000000000002e+00 0.0000000000000000e+00 0.0000000000000000e+00
5.8000000000000007e+00 0.0000000000000000e+00 0.0000000000000000e+00
5.9000000000000004e+00 0.0000000000000000e+00 0.0000000000000000e+00
6.0000000000000000e+00 0.0000000000000000e+00 0.0000000000000000e+00
6.1000000000000005e+00 0.0000000000000000e+00 0.0000000000000000e+00
6.2000000000000002e+00 0.0000000000000000e+00 0.0000000000000000e+00
6.3000000000000007e+00 0.0000000000000000e+00 0.0000000000000000e+00
6.4000000000000004e+00 0.0000000000000000e+00 0.0000000000000000e+00
6.5000000000000000e+00 0.0000000000000000e+00 0.0000000000000000e+00
6.6000000000000005e+00 0.0000000000000000e+00 0.0000000000000000e+00
6.7000000000000002e+00 0.0000000000000000e+00 0.0000000000000000e+00
6.8000000000000007e+00 0.0000000000000000e+00 0.0000000000000000e+00
6.9000000000000004e+00 0.0000000000000000e+00 0.0000000000000000e+00
7.0000000000000000e+00 0.0000000000000000e+00 0.0000000000000000e+00
7.1000000000000005e+00 0.0000000000000000e+00 0.0000000000000000e+00
7.2000000000000002e+00 0.0000000000000000e+00 0.0000000000000000e+00
7.3000000000000007e+00 0.0000000000000000e+00 0.0000000000000000e+00
7.4000000000000004e+00 0.0000000000000000e+00 0.0000000000000000e+00
7.5000000000000000e+00 0.0000000000000000e+00 0.0000000000000000e+00
7.6000000000000005e+00 0.0000000000000000e+00 0.0000000000000000e+00
7.7000000000000002e+00 0.0000000000000000e+00 0.0000000000000000e+00
7.8000000000000007e+00 0.0000000000000000e+00 0.0000000000000000e+00
7.9000000000000004e+00 0.0000000000000000e+00 0.0000000000000000e+00
8.0000000000000000e+00 0.0000000000000000e+00 0.0000000000000000e+00
8.0999999999999996e+00 0.0000000000000000e+00 0.0000000000000000e+00
8.2000000000000011e+00 0.0000000000000000e+00 0.0000000000000000e+00
8.3000000000000007e+00 0.0000000000000000e+00 0.0000000000000000e+00
8.4000000000000004e+00 0.0000000000000000e+00 0.0000000000000000e+00
8.5000000000000000e+00 0.0000000000000000e+00 0.0000000000000000e+00
8.5999999999999996e+00 0.0000000000000000e+00 0.0000000000000000e+00
8.7000000000000011e+00 0.0000000000000000e+00 0.0000000000000000e+00
8.8000000000000007e+00 0.0000000000000000e+00 0.0000000000000000e+00
8.9000000000000004e+00 0.0000000000000000e+00 0.0000000000000000e+00
9.0000000000000000e+00 0.0000000000000000e+00 0.0000000000000000e+00
9.0999999999999996e+00 0.0000000000000000e+00 0.0000000000000000e+00
9.2000000000000011e+00 0.0000000000000000e+00 0.0000000000000000e+00
9.3000000000000007e+00 0.0000000000000000e+00 0.0000000000000000e+00
9.4000000000000004e+00 0.0000000000000000e+00 0.0000000000000000e+00
9.5000000000000000e+00 0.0000000000000000e+00 0.0000000000000000e+00
9.6000000000000014e+00 0.0000000000000000e+00 0.0000000000000000e+00
9.7000000000000011e+00 0.0000000000000000e+00 0.0000000000000000e+00
9.8000000000000007e+00 0.0000000000000000e+00 0.0000000000000000e+00
9.9000000000000004e+00 0.0000000000000000e+00 0.0000000000000000e+00
1.0000000000000000e+01 0.0000000000000000e+00 0.0000000000000000e+00

POINT_DATA 101

VECTORS velocity float
7.4498754474469058e+00 0.0000000000000000e+00 0.0000000000000000e+00
7.4510565672716513e+00 0.0000000000000000e+00 0.0000000000000000e+00
7.4521935255452645e+00 0.0000000000000000e+00 0.0000000000000000e+00
7.4532942812092244e+00 0.0000000000000000e+00 0.0000000000000000e+00
7.4543670937790232e+00 0.0000000000000000e+00 0.0000000000000000e+00
7.4554204078092772e+00 0.0000000000000000e+00 0.0000000000000000e+00
7.4564617549233576e+00 0.0000000000000000e+00 0.0000000000000000e+00
7.4574932013746755e+00 0.0000000000000000e+00 0.0000000000000000e+00
7.4585122232713585e+00 0.0000000000000000e+00 0.0000000000000000e+00
7.4595176703900341e+00 0.0000000000000000e+00 0.0000000000000000e+00
7.4605108909394540e+00 0.0000000000000000e+00 0.0000000000000000e+00
7.4614923900773498e+00 0.0000000000000000e+00 0.0000000000000000e+00
7.4624644556626061e+00 0.0000000000000000e+00 0.0000000000000000e+00
7.4634312774222673e+00 0.0000000000000000e+00 0.0000000000000000e+00
7.4643919042423006e+00 0.0000000000000000e+00 0.0000000000000000e+00
7.4653447926328687e+00 0.0000000000000000e+00 0.0000000000000000e+00
7.4662848241529840e+00 0.0000000000000000e+00 0.0000000000000000e+00
7.4672092731552064e+00 0.0000000000000000e+00 0.0000000000000000e+00
7.4681230096720039e+00 0.0000000000000000e+00 0.0000000000000000e+00
7.4690277696149883e+00 0.0000000000000000e+00 0.0000000000000000e+00
7.4699225225213830e+00 0.0000000000000000e+00 0.0000000000000000e+00
7.4708070668689182e+00 0.0000000000000000e+00 0.0000000000000000e+00
7.4716824881422585e+00 0.0000000000000000e+00 0.0000000000000000e+00
7.4725494590471850e+00 0.0000000000000000e+00 0.0000000000000000e+00
7.4734097123970393e+00 0.0000000000000000e+00 0.0000000000000000e+00
7.4742610658911763e+00 0.0000000000000000e+00 0.0000000000000000e+00
7.4751010625285010e+00 0.0000000000000000e+00 0.0000000000000000e+00
7.4759309420887092e+00 0.0000000000000000e+00 0.0000000000000000e+00
7.4767510504969144e+00 0.0000000000000000e+00 0.0000000000000000e+00
7.4775602849916600e+00 0.0000000000000000e+00 0.0000000000000000e+00
7.4783580662655282e+00 0.0000000000000000e+00 0.0000000000000000e+00
7.4791452903173727e+00 0.0000000000000000e+00 0.0000000000000000e+00
7.4799225547923234e+00 0.0000000000000000e+00 0.0000000000000000e+00
7.4806905880561967e+00 0.0000000000000000e+00 0.0000000000000000e+00
7.4814491235594014e+00 0.0000000000000000e+00 0.0000000000000000e+00
7.4821978900327943e+00 0.0000000000000000e+00 0.0000000000000000e+00
7.4829367718935211e+00 0.0000000000000000e+00 0.0000000000000000e+00
7.4836658236994564e+00 0.0000000000000000e+00 0.0000000000000000e+00
7.4843846995123009e+00 0.0000000000000000e+00 0.0000000000000000e+00
7.4850944693166266e+00 0.0000000000000000e+00 0.0000000000000000e+00
7.4857961513275972e+00 0.0000000000000000e+00 0.0000000000000000e+00
7.4864886688616705e+00 0.0000000000000000e+00 0.0000000000000000e+00
7.4871718668790415e+00 0.0000000000000000e+00 0.0000000000000000e+00
7.4878456462616301e+00 0.0000000000000000e+00 0.0000000000000000e+00
7.4885099432102704e+00 0.0000000000000000e+00 0.0000000000000000e+00
7.4891647152035370e+00 0.0000000000000000e+00 0.0000000000000000e+00
7.4898099331315402e+00 0.0000000000000000e+00 0.0000000000000000e+00
7.4904455752948671e+00 0.0000000000000000e+00 0.0000000000000000e+00
7.4910716265203670e+00 0.0000000000000000e+00 0.0000000000000000e+00
7.4916880745084118e+00 0.0000000000000000e+00 0.0000000000000000e+00
7.4922949081284829e+00 0.0000000000000000e+00 0.0000000000000000e+00
7.4928921188366191e+00 0.0000000000000000e+00 0.0000000000000000e+00
7.4934796975728597e+00 0.0000000000000000e+00 0.0000000000000000e+00
7.4940576358576019e+00 0.0000000000000000e+00 0.0000000000000000e+00
7.4946259264727466e+00 0.0000000000000000e+00 0.0000000000000000e+00
7.4951845623144360e+00 0.0000000000000000e+00 0.0000000000000000e+00
7.4957335357786201e+00 0.0000000000000000e+00 0.0000000000000000e+00
7.4962728398914757e+00 0.0000000000000000e+00 0.0000000000000000e+00
7.4968024684134749e+00 0.0000000000000000e+00 0.0000000000000000e+00
7.4973224144105250e+00 0.0000000000000000e+00 0.0000000000000000e+00
7.4978326710267984e+00 0.0000000000000000e+00 0.0000000000000000e+00
7.4983332323618042e+00 0.0000000000000000e+00 0.0000000000000000e+00
7.4988240923503193e+00 0.0000000000000000e+00 0.0000000000000000e+00
7.4993052444360142e+00 0.0000000000000000e+00 0.0000000000000000e+00
7.4997766825936640e+00 0.0000000000000000e+00 0.0000000000000000e+00
7.5002384009268139e+00 0.0000000000000000e+00 0.0000000000000000e+00
7.5006903935701557e+00 0.0000000000000000e+00 0.0000000000000000e+00
7.5011326549385453e+00 0.0000000000000000e+00 0.0000000000000000e+00
7.5015651795057332e+00 0.0000000000000000e+00 0.0000000000000000e+00
7.5019879617756251e+00 0.0000000000000000e+00 0.0000000000000000e+00
7.5024009964207492e+00 0.0000000000000000e+00 0.0000000000000000e+00
7.5028042783346898e+00 0.0000000000000000e+00 0.0000000000000000e+00
7.5031978024659463e+00 0.0000000000000000e+00 0.0000000000000000e+00
7.5035815637674146e+00 0.0000000000000000e+00 0.0000000000000000e+00
7.5039555574454218e+00 0.0000000000000000e+00 0.0000000000000000e+00
7.5043197785975124e+00 0.0000000000000000e+00 0.0000000000000000e+00
7.5046742226525920e+00 0.0000000000000000e+00 0.0000000000000000e+00
7.5050188850600357e+00 0.0000000000000000e+00 0.0000000000000000e+00
7.5053537614920751e+00 0.0000000000000000e+00 0.0000000000000000e+00
7.5056788480557470e+00 0.0000000000000000e+00 0.0000000000000000e+00
7.5059941406155568e+00 0.0000000000000000e+00 0.0000000000000000e+00
7.5062996352297109e+00 0.0000000000000000e+00 0.0000000000000000e+00
7.5065953278605857e+00 0.0000000000000000e+00 0.0000000000000000e+00
7.5068812144920862e+00 0.0000000000000000e+00 0.0000000000000000e+00
7.5071572917508727e+00 0.0000000000000000e+00 0.0000000000000000e+00
7.5074235565424150e+00 0.0000000000000000e+00 0.0000000000000000e+00
7.5076800059875577e+00 0.0000000000000000e+00 0.0000000000000000e+00
7.5079266349140665e+00 0.0000000000000000e+00 0.0000000000000000e+00
7.5081634401356263e+00 0.0000000000000000e+00 0.0000000000000000e+00
7.5083904182581147e+00 0.0000000000000000e+00 0.0000000000000000e+00
7.5086075693455712e+00 0.0000000000000000e+00 0.0000000000000000e+00
7.5088148897438476e+00 0.0000000000000000e+00 0.0000000000000000e+00
7.5090123787178014e+00 0.0000000000000000e+00 0.0000000000000000e+00
7.5092000231055662e+00 0.0000000000000000e+00 0.0000000000000000e+00
7.5093778505567856e+00 0.0000000000000000e+00 0.0000000000000000e+00
7.5095457739280151e+00 0.0000000000000000e+00 0.0000000000000000e+00
7.5097040252785545e+00 0.0000000000000000e+00 0.0000000000000000e+00
7.5098519569962274e+00 0.0000000000000000e+00 0.0000000000000000e+00
7.5099913431143674e+00 0.0000000000000000e+00 0.0000000000000000e+00
7.5101172955782669e+00 0.0000000000000000e+00 0.0000000000000000e+00
7.5102432480421655e+00 0.0000000000000000e+00 0.0000000000000000e+00


SCALARS pressure float
LOOKUP_TABLE default
1.3521639993682191e+01
1.3399236622676794e+01
1.3276833251671395e+01
1.3154282761394269e+01
1.3031498082410346e+01
1.2908412311028135e+01
1.2784964893904696e+01
1.2661101253778629e+01
1.2536795804509801e+01
1.2412056047387672e+01
1.2286894764808624e+01
1.2161314675381730e+01
1.2035318870784852e+01
1.1908901856928955e+01
1.1782045690257595e+01
1.1654752528453844e+01
1.1527034888048195e+01
1.1398925845480326e+01
1.1270454057464640e+01
1.1141610750154607e+01
1.1012388687759575e+01
1.0882794448440245e+01
1.0752835714442151e+01
1.0622514800295361e+01
1.0491834087613457e+01
1.0360789877208061e+01
1.0229394373743872e+01
1.0097667755004185e+01
9.9656154559537349e+00
9.8332418760899234e+00
9.7005580104767173e+00
9.5675747637601596e+00
9.4342959943532616e+00
9.3007244907844679e+00
9.1668620412353619e+00
9.0327147569651984e+00
8.8982902799632360e+00
8.7635960748233792e+00
8.6286386506762316e+00
8.4934262680353623e+00
8.3579603859941809e+00
8.2222396857074074e+00
8.0862724889774675e+00
7.9500663258805275e+00
7.8136282380067836e+00
7.6769649646274125e+00
7.5400830630992335e+00
7.4029889809386189e+00
7.2656891045714849e+00
7.1281897778036543e+00
6.9904973237946288e+00
6.8526180593723636e+00
6.7145582927847789e+00
6.5763243367273825e+00
6.4379225072739867e+00
6.2993591201700685e+00
6.1606404948039168e+00
6.0217729584266690e+00
5.8827628419575202e+00
5.7436164778575654e+00
5.6043402060919041e+00
5.4649403724404948e+00
5.3254233236971524e+00
5.1857954112231059e+00
5.0460629936716002e+00
4.9062324330078866e+00
4.7663100948940738e+00
4.6263023492003992e+00
4.4862155689163608e+00
4.3460561306979342e+00
4.2058304151190775e+00
4.0655448060333716e+00
3.9252056900222088e+00
3.7848194569072784e+00
3.6443925000477861e+00
3.5039312151353226e+00
3.3634420015232322e+00
3.2229312603221500e+00
3.0824053953581196e+00
2.9418708121902135e+00
2.8013339166278355e+00
2.6608011178698501e+00
2.5202788270730334e+00
2.3797734581831897e+00
2.2392914271268642e+00
2.0988391492722100e+00
1.9584230402351916e+00
1.8180495161150589e+00
1.6777250050895951e+00
1.5374559307909539e+00
1.3972487173076915e+00
1.2571097730131393e+00
1.1170455206778960e+00
9.7706237295219367e-01
8.3716680362081464e-01
6.9736510033670862e-01
5.5766407001263396e-01
4.1806908079091415e-01
2.7858945946799923e-01
1.3922364825134578e-01
0.0000000000000000e+00


SCALARS diameter float
LOOKUP_TABLE default
1.0012175860693231e+00
1.0012055041408607e+00
1.0011939499826408e+00
1.0011837409585116e+00
1.0011743945960869e+00
1.0011650427127528e+00
1.0011546450713240e+00
1.0011432594528269e+00
1.0011319788509796e+00
1.0011213588011092e+00
1.0011109794708515e+00
1.0011006025082052e+00
1.0010900983768163e+00
1.0010783938680354e+00
1.0010656873350463e+00
1.0010529103768484e+00
1.0010404167206219e+00
1.0010296929084312e+00
1.0010188787537460e+00
1.0010075339100588e+00
1.0009960616706868e+00
1.0009847388730790e+00
1.0009732012933530e+00
1.0009613360874683e+00
1.0009488928439325e+00
1.0009359986264423e+00
1.0009238846632216e+00
1.0009117527947407e+00
1.0008996211133145e+00
1.0008875307756875e+00
1.0008759148685136e+00
1.0008642911118484e+00
1.0008526691359274e+00
1.0008408167112752e+00
1.0008288553025031e+00
1.0008168935656805e+00
1.0008049306120639e+00
1.0007929660830159e+00
1.0007810000892532e+00
1.0007689998822080e+00
1.0007564647273459e+00
1.0007439242886611e+00
1.0007313793018613e+00
1.0007188303560215e+00
1.0007062776414468e+00
1.0006937213159137e+00
1.0006811615455466e+00
1.0006685984862960e+00
1.0006560323561258e+00
1.0006434628148593e+00
1.0006308903735084e+00
1.0006183148005734e+00
1.0006057362547600e+00
1.0005931550344997e+00
1.0005805710784610e+00
1.0005679843869368e+00
1.0005553951257640e+00
1.0005428034636359e+00
1.0005302092678925e+00
1.0005176126678292e+00
1.0005050138728668e+00
1.0004924128558113e+00
1.0004798095732514e+00
1.0004672042482514e+00
1.0004545969712721e+00
1.0004419877615993e+00
1.0004293767386765e+00
1.0004167639364818e+00
1.0004041494231064e+00
1.0003915332801330e+00
1.0003789155957281e+00
1.0003662964123476e+00
1.0003536757926186e+00
1.0003410538274113e+00
1.0003284305903524e+00
1.0003158061543078e+00
1.0003031806410321e+00
1.0002905540460114e+00
1.0002779265375896e+00
1.0002652980016717e+00
1.0002526686185838e+00
1.0002400383696215e+00
1.0002274074233362e+00
1.0002147758362654e+00
1.0002021437264956e+00
1.0001895109732624e+00
1.0001768775968780e+00
1.0001642438498837e+00
1.0001516102304600e+00
1.0001389762848187e+00
1.0001263422397120e+00
1.0001137071402684e+00
1.0001010723943002e+00
1.0000884374301864e+00
1.0000758027093581e+00
1.0000631681015861e+00
1.0000505337328469e+00
1.0000378996388346e+00
1.0000252659935114e+00
1.0000126328500125e+00
9.9999999988794064e-01


SCALARS iters float
LOOKUP_TABLE default
5.0000000000000000e+00
5.0000000000000000e+00
5.0000000000000000e+00
5.0000000000000000e+00
5.0000000000000000e+00
5.0000000000000000e+00
5.0000000000000000e+00
5.0000000000000000e+00
5.0000000000000000e+00
5.0000000000000000e+00
5.0000000000000000e+00
5.0000000000000000e+00
5.0000000000000000e+00
5.0000000000000000e+00
5.0000000000000000e+00
5.0000000000000000e+00
5.0000000000000000e+00
5.0000000000000000e+00
5.0000000000000000e+00
5.0000000000000000e+00
5.0000000000000000e+00
5.0000000000000000e+00
5.0000000000000000e+00
5.0000000000000000e+00
5.0000000000000000e+00
5.0000000000000000e+00
5.0000000000000000e+00
5.0000000000000000e+00
5.0000000000000000e+00
5.0000000000000000e+00
5.0000000000000000e+00
5.0000000000000000e+00
5.0000000000000000e+00
5.0000000000000000e+00
5.0000000000000000e+00
5.0000000000000000e+00
5.0000000000000000e+00
5.0000000000000000e+00
5.0000000000000000e+00
5.0000000000000000e+00
5.0000000000000000e+00
5.0000000000000000e+00
5.0000000000000000e+00
5.0000000000000000e+00
5.0000000000000000e+00
5.0000000000000000e+00
5.0000000000000000e+00
5.0000000000000000e+00
5.0000000000000000e+00
5.0000000000000000e+00
5.0000000000000000e+00
5.0000000000000000e+00
5.0000000000000000e+00
5.0000000000000000e+00
5.0000000000000000e+00
5.0000000000000000e+00
5.0000000000000000e+00
5.0000000000000000e+00
5.0000000000000000e+00
5.0000000000000000e+00
5.0000000000000000e+00
5.0000000000000000e+00
5.0000000000000000e+00
5.0000000000000000e+00
5.0000000000000000e+00
5.0000000000000000e+00
5.0000000000000000e+00
5.0000000000000000e+00
5.0000000000000000e+00
5.0000000000000000e+00
5.0000000000000000e+00
5.0000000000000000e+00
5.0000000000000000e+00
5.0000000000000000e+00
5.0000000000000000e+00
5.0000000000000000e+00
5.0000000000000000e+00
5.0000000000000000e+00
5.0000000000000000e+00
5.0000000000000000e+00
5.0000000000000000e+00
5.0000000000000000e+00
5.0000000000000000e+00
5.0000000000000000e+00
5.0000000000000000e+00
5.0000000000000000e+00
5.0000000000000000e+00
5.0000000000000000e+00
5.0000000000000000e+00
5.0000000000000000e+00
5.0000000000000000e+00
5.0000000000000000e+00
5.0000000000000000e+00
5.0000000000000000e+00
5.0000000000000000e+00
5.0000000000000000e+00
5.0000000000000000e+00
5.0000000000000000e+00
5.0000000000000000e+00
5.0000000000000000e+00
5.0000000000000000e+00


