# vtk DataFile Version 2.0

ASCII

DATASET UNSTRUCTURED_GRID

POINTS 101 float

0.0000000000000000e+00 0.0000000000000000e+00 0.0000000000000000e+00
1.0000000000000001e-01 0.0000000000000000e+00 0.0000000000000000e+00
2.0000000000000001e-01 0.0000000000000000e+00 0.0000000000000000e+00
3.0000000000000004e-01 0.0000000000000000e+00 0.0000000000000000e+00
4.0000000000000002e-01 0.0000000000000000e+00 0.0000000000000000e+00
5.0000000000000000e-01 0.0000000000000000e+00 0.0000000000000000e+00
6.0000000000000009e-01 0.0000000000000000e+00 0.0000000000000000e+00
7.0000000000000007e-01 0.0000000000000000e+00 0.0000000000000000e+00
8.0000000000000004e-01 0.0000000000000000e+00 0.0000000000000000e+00
9.0000000000000002e-01 0.0000000000000000e+00 0.0000000000000000e+00
1.0000000000000000e+00 0.0000000000000000e+00 0.0000000000000000e+00
1.1000000000000001e+00 0.0000000000000000e+00 0.0000000000000000e+00
1.2000000000000002e+00 0.0000000000000000e+00 0.0000000000000000e+00
1.3000000000000000e+00 0.0000000000000000e+00 0.0000000000000000e+00
1.4000000000000001e+00 0.0000000000000000e+00 0.0000000000000000e+00
1.5000000000000000e+00 0.0000000000000000e+00 0.0000000000000000e+00
1.6000000000000001e+00 0.0000000000000000e+00 0.0000000000000000e+00
1.7000000000000002e+00 0.0000000000000000e+00 0.0000000000000000e+00
1.8000000000000000e+00 0.0000000000000000e+00 0.0000000000000000e+00
1.9000000000000001e+00 0.0000000000000000e+00 0.0000000000000000e+00
2.0000000000000000e+00 0.0000000000000000e+00 0.0000000000000000e+00
2.1000000000000001e+00 0.0000000000000000e+00 0.0000000000000000e+00
2.2000000000000002e+00 0.0000000000000000e+00 0.0000000000000000e+00
2.3000000000000003e+00 0.0000000000000000e+00 0.0000000000000000e+00
2.4000000000000004e+00 0.0000000000000000e+00 0.0000000000000000e+00
2.5000000000000000e+00 0.0000000000000000e+00 0.0000000000000000e+00
2.6000000000000001e+00 0.0000000000000000e+00 0.0000000000000000e+00
2.7000000000000002e+00 0.0000000000000000e+00 0.0000000000000000e+00
2.8000000000000003e+00 0.0000000000000000e+00 0.0000000000000000e+00
2.9000000000000004e+00 0.0000000000000000e+00 0.0000000000000000e+00
3.0000000000000000e+00 0.0000000000000000e+00 0.0000000000000000e+00
3.1000000000000001e+00 0.0000000000000000e+00 0.0000000000000000e+00
3.2000000000000002e+00 0.0000000000000000e+00 0.0000000000000000e+00
3.3000000000000003e+00 0.0000000000000000e+00 0.0000000000000000e+00
3.4000000000000004e+00 0.0000000000000000e+00 0.0000000000000000e+00
3.5000000000000000e+00 0.0000000000000000e+00 0.0000000000000000e+00
3.6000000000000001e+00 0.0000000000000000e+00 0.0000000000000000e+00
3.7000000000000002e+00 0.0000000000000000e+00 0.0000000000000000e+00
3.8000000000000003e+00 0.0000000000000000e+00 0.0000000000000000e+00
3.9000000000000004e+00 0.0000000000000000e+00 0.0000000000000000e+00
4.0000000000000000e+00 0.0000000000000000e+00 0.0000000000000000e+00
4.1000000000000005e+00 0.0000000000000000e+00 0.0000000000000000e+00
4.2000000000000002e+00 0.0000000000000000e+00 0.0000000000000000e+00
4.2999999999999998e+00 0.0000000000000000e+00 0.0000000000000000e+00
4.4000000000000004e+00 0.0000000000000000e+00 0.0000000000000000e+00
4.5000000000000000e+00 0.0000000000000000e+00 0.0000000000000000e+00
4.6000000000000005e+00 0.0000000000000000e+00 0.0000000000000000e+00
4.7000000000000002e+00 0.0000000000000000e+00 0.0000000000000000e+00
4.8000000000000007e+00 0.0000000000000000e+00 0.0000000000000000e+00
4.9000000000000004e+00 0.0000000000000000e+00 0.0000000000000000e+00
5.0000000000000000e+00 0.0000000000000000e+00 0.0000000000000000e+00
5.1000000000000005e+00 0.0000000000000000e+00 0.0000000000000000e+00
5.2000000000000002e+00 0.0000000000000000e+00 0.0000000000000000e+00
5.3000000000000007e+00 0.0000000000000000e+00 0.0000000000000000e+00
5.4000000000000004e+00 0.0000000000000000e+00 0.0000000000000000e+00
5.5000000000000000e+00 0.0000000000000000e+00 0.0000000000000000e+00
5.6000000000000005e+00 0.0000000000000000e+00 0.0000000000000000e+00
5.7000000000000002e+00 0.0000000000000000e+00 0.0000000000000000e+00
5.8000000000000007e+00 0.0000000000000000e+00 0.0000000000000000e+00
5.9000000000000004e+00 0.0000000000000000e+00 0.0000000000000000e+00
6.0000000000000000e+00 0.0000000000000000e+00 0.0000000000000000e+00
6.1000000000000005e+00 0.0000000000000000e+00 0.0000000000000000e+00
6.2000000000000002e+00 0.0000000000000000e+00 0.0000000000000000e+00
6.3000000000000007e+00 0.0000000000000000e+00 0.0000000000000000e+00
6.4000000000000004e+00 0.0000000000000000e+00 0.0000000000000000e+00
6.5000000000000000e+00 0.0000000000000000e+00 0.0000000000000000e+00
6.6000000000000005e+00 0.0000000000000000e+00 0.0000000000000000e+00
6.7000000000000002e+00 0.0000000000000000e+00 0.0000000000000000e+00
6.8000000000000007e+00 0.0000000000000000e+00 0.0000000000000000e+00
6.9000000000000004e+00 0.0000000000000000e+00 0.0000000000000000e+00
7.0000000000000000e+00 0.0000000000000000e+00 0.0000000000000000e+00
7.1000000000000005e+00 0.0000000000000000e+00 0.0000000000000000e+00
7.2000000000000002e+00 0.0000000000000000e+00 0.0000000000000000e+00
7.3000000000000007e+00 0.0000000000000000e+00 0.0000000000000000e+00
7.4000000000000004e+00 0.0000000000000000e+00 0.0000000000000000e+00
7.5000000000000000e+00 0.0000000000000000e+00 0.0000000000000000e+00
7.6000000000000005e+00 0.0000000000000000e+00 0.0000000000000000e+00
7.7000000000000002e+00 0.0000000000000000e+00 0.0000000000000000e+00
7.8000000000000007e+00 0.0000000000000000e+00 0.0000000000000000e+00
7.9000000000000004e+00 0.0000000000000000e+00 0.0000000000000000e+00
8.0000000000000000e+00 0.0000000000000000e+00 0.0000000000000000e+00
8.0999999999999996e+00 0.0000000000000000e+00 0.0000000000000000e+00
8.2000000000000011e+00 0.0000000000000000e+00 0.0000000000000000e+00
8.3000000000000007e+00 0.0000000000000000e+00 0.0000000000000000e+00
8.4000000000000004e+00 0.0000000000000000e+00 0.0000000000000000e+00
8.5000000000000000e+00 0.0000000000000000e+00 0.0000000000000000e+00
8.5999999999999996e+00 0.0000000000000000e+00 0.0000000000000000e+00
8.7000000000000011e+00 0.0000000000000000e+00 0.0000000000000000e+00
8.8000000000000007e+00 0.0000000000000000e+00 0.0000000000000000e+00
8.9000000000000004e+00 0.0000000000000000e+00 0.0000000000000000e+00
9.0000000000000000e+00 0.0000000000000000e+00 0.0000000000000000e+00
9.0999999999999996e+00 0.0000000000000000e+00 0.0000000000000000e+00
9.2000000000000011e+00 0.0000000000000000e+00 0.0000000000000000e+00
9.3000000000000007e+00 0.0000000000000000e+00 0.0000000000000000e+00
9.4000000000000004e+00 0.0000000000000000e+00 0.0000000000000000e+00
9.5000000000000000e+00 0.0000000000000000e+00 0.0000000000000000e+00
9.6000000000000014e+00 0.0000000000000000e+00 0.0000000000000000e+00
9.7000000000000011e+00 0.0000000000000000e+00 0.0000000000000000e+00
9.8000000000000007e+00 0.0000000000000000e+00 0.0000000000000000e+00
9.9000000000000004e+00 0.0000000000000000e+00 0.0000000000000000e+00
1.0000000000000000e+01 0.0000000000000000e+00 0.0000000000000000e+00

POINT_DATA 101

VECTORS velocity float
6.9518454281412803e+00 0.0000000000000000e+00 0.0000000000000000e+00
6.9527376745754861e+00 0.0000000000000000e+00 0.0000000000000000e+00
6.9536950836647327e+00 0.0000000000000000e+00 0.0000000000000000e+00
6.9546915119030235e+00 0.0000000000000000e+00 0.0000000000000000e+00
6.9557011742259771e+00 0.0000000000000000e+00 0.0000000000000000e+00
6.9567192302298571e+00 0.0000000000000000e+00 0.0000000000000000e+00
6.9577509354957368e+00 0.0000000000000000e+00 0.0000000000000000e+00
6.9587742563001038e+00 0.0000000000000000e+00 0.0000000000000000e+00
6.9597806239830264e+00 0.0000000000000000e+00 0.0000000000000000e+00
6.9607778192417626e+00 0.0000000000000000e+00 0.0000000000000000e+00
6.9617627460896694e+00 0.0000000000000000e+00 0.0000000000000000e+00
6.9627329758335819e+00 0.0000000000000000e+00 0.0000000000000000e+00
6.9636955012601574e+00 0.0000000000000000e+00 0.0000000000000000e+00
6.9646613162548325e+00 0.0000000000000000e+00 0.0000000000000000e+00
6.9656261722001540e+00 0.0000000000000000e+00 0.0000000000000000e+00
6.9665823991729194e+00 0.0000000000000000e+00 0.0000000000000000e+00
6.9675209217853400e+00 0.0000000000000000e+00 0.0000000000000000e+00
6.9684412275021597e+00 0.0000000000000000e+00 0.0000000000000000e+00
6.9693540742995008e+00 0.0000000000000000e+00 0.0000000000000000e+00
6.9702623686104221e+00 0.0000000000000000e+00 0.0000000000000000e+00
6.9711595771767172e+00 0.0000000000000000e+00 0.0000000000000000e+00
6.9720386719915082e+00 0.0000000000000000e+00 0.0000000000000000e+00
6.9728942620083574e+00 0.0000000000000000e+00 0.0000000000000000e+00
6.9737253253163960e+00 0.0000000000000000e+00 0.0000000000000000e+00
6.9745629962341109e+00 0.0000000000000000e+00 0.0000000000000000e+00
6.9754029636886461e+00 0.0000000000000000e+00 0.0000000000000000e+00
6.9762184467348280e+00 0.0000000000000000e+00 0.0000000000000000e+00
6.9770187554612679e+00 0.0000000000000000e+00 0.0000000000000000e+00
6.9778050461600083e+00 0.0000000000000000e+00 0.0000000000000000e+00
6.9785764774615231e+00 0.0000000000000000e+00 0.0000000000000000e+00
6.9793327069132305e+00 0.0000000000000000e+00 0.0000000000000000e+00
6.9800745544638607e+00 0.0000000000000000e+00 0.0000000000000000e+00
6.9808032271121920e+00 0.0000000000000000e+00 0.0000000000000000e+00
6.9815199630351641e+00 0.0000000000000000e+00 0.0000000000000000e+00
6.9822241471605322e+00 0.0000000000000000e+00 0.0000000000000000e+00
6.9829154523761430e+00 0.0000000000000000e+00 0.0000000000000000e+00
6.9835936821824651e+00 0.0000000000000000e+00 0.0000000000000000e+00
6.9842589248150500e+00 0.0000000000000000e+00 0.0000000000000000e+00
6.9849106655485604e+00 0.0000000000000000e+00 0.0000000000000000e+00
6.9855502929199691e+00 0.0000000000000000e+00 0.0000000000000000e+00
6.9861785238635852e+00 0.0000000000000000e+00 0.0000000000000000e+00
6.9867940187997242e+00 0.0000000000000000e+00 0.0000000000000000e+00
6.9873964568565956e+00 0.0000000000000000e+00 0.0000000000000000e+00
6.9879856314210738e+00 0.0000000000000000e+00 0.0000000000000000e+00
6.9885614020911664e+00 0.0000000000000000e+00 0.0000000000000000e+00
6.9891236708427140e+00 0.0000000000000000e+00 0.0000000000000000e+00
6.9896723694005187e+00 0.0000000000000000e+00 0.0000000000000000e+00
6.9902074498848439e+00 0.0000000000000000e+00 0.0000000000000000e+00
6.9907288751280747e+00 0.0000000000000000e+00 0.0000000000000000e+00
6.9912366154387495e+00 0.0000000000000000e+00 0.0000000000000000e+00
6.9917306474174978e+00 0.0000000000000000e+00 0.0000000000000000e+00
6.9922109505448296e+00 0.0000000000000000e+00 0.0000000000000000e+00
6.9926775066412805e+00 0.0000000000000000e+00 0.0000000000000000e+00
6.9931303008798347e+00 0.0000000000000000e+00 0.0000000000000000e+00
6.9935693187139387e+00 0.0000000000000000e+00 0.0000000000000000e+00
6.9939945442991638e+00 0.0000000000000000e+00 0.0000000000000000e+00
6.9944059638749723e+00 0.0000000000000000e+00 0.0000000000000000e+00
6.9948035661013250e+00 0.0000000000000000e+00 0.0000000000000000e+00
6.9951873388019408e+00 0.0000000000000000e+00 0.0000000000000000e+00
6.9955572698673238e+00 0.0000000000000000e+00 0.0000000000000000e+00
6.9959133484595064e+00 0.0000000000000000e+00 0.0000000000000000e+00
6.9962555650486191e+00 0.0000000000000000e+00 0.0000000000000000e+00
6.9965839093445883e+00 0.0000000000000000e+00 0.0000000000000000e+00
6.9968983708854058e+00 0.0000000000000000e+00 0.0000000000000000e+00
6.9971989401400938e+00 0.0000000000000000e+00 0.0000000000000000e+00
6.9974856079319876e+00 0.0000000000000000e+00 0.0000000000000000e+00
6.9977583655841151e+00 0.0000000000000000e+00 0.0000000000000000e+00
6.9980172049244089e+00 0.0000000000000000e+00 0.0000000000000000e+00
6.9982621181894089e+00 0.0000000000000000e+00 0.0000000000000000e+00
6.9984930981987370e+00 0.0000000000000000e+00 0.0000000000000000e+00
6.9987101379081382e+00 0.0000000000000000e+00 0.0000000000000000e+00
6.9989132310199151e+00 0.0000000000000000e+00 0.0000000000000000e+00
6.9991023713641374e+00 0.0000000000000000e+00 0.0000000000000000e+00
6.9992775531936751e+00 0.0000000000000000e+00 0.0000000000000000e+00
6.9994387718209161e+00 0.0000000000000000e+00 0.0000000000000000e+00
6.9995860214107015e+00 0.0000000000000000e+00 0.0000000000000000e+00
6.9997192983637806e+00 0.0000000000000000e+00 0.0000000000000000e+00
6.9998385974965736e+00 0.0000000000000000e+00 0.0000000000000000e+00
6.9999439170683839e+00 0.0000000000000000e+00 0.0000000000000000e+00
7.0000352547206983e+00 0.0000000000000000e+00 0.0000000000000000e+00
7.0001126055451666e+00 0.0000000000000000e+00 0.0000000000000000e+00
7.0001759679762685e+00 0.0000000000000000e+00 0.0000000000000000e+00
7.0002253399227667e+00 0.0000000000000000e+00 0.0000000000000000e+00
7.0002607207704868e+00 0.0000000000000000e+00 0.0000000000000000e+00
7.0002821065199790e+00 0.0000000000000000e+00 0.0000000000000000e+00
7.0002894992027640e+00 0.0000000000000000e+00 0.0000000000000000e+00
7.0002828979205498e+00 0.0000000000000000e+00 0.0000000000000000e+00
7.0002622965863042e+00 0.0000000000000000e+00 0.0000000000000000e+00
7.0002276986857801e+00 0.0000000000000000e+00 0.0000000000000000e+00
7.0001791061439382e+00 0.0000000000000000e+00 0.0000000000000000e+00
7.0001165275569450e+00 0.0000000000000000e+00 0.0000000000000000e+00
7.0000399586400661e+00 0.0000000000000000e+00 0.0000000000000000e+00
6.9999494050504847e+00 0.0000000000000000e+00 0.0000000000000000e+00
6.9998448472494488e+00 0.0000000000000000e+00 0.0000000000000000e+00
6.9997263544863255e+00 0.0000000000000000e+00 0.0000000000000000e+00
6.9995937614091330e+00 0.0000000000000000e+00 0.0000000000000000e+00
6.9994475088766599e+00 0.0000000000000000e+00 0.0000000000000000e+00
6.9992864668538264e+00 0.0000000000000000e+00 0.0000000000000000e+00
6.9991135723921944e+00 0.0000000000000000e+00 0.0000000000000000e+00
6.9989212803378056e+00 0.0000000000000000e+00 0.0000000000000000e+00
6.9987289882834176e+00 0.0000000000000000e+00 0.0000000000000000e+00


SCALARS pressure float
LOOKUP_TABLE default
-3.5571592941677288e+01
-3.5243645455622364e+01
-3.4915697969567432e+01
-3.4587510460061068e+01
-3.4258909218002735e+01
-3.3929734357460511e+01
-3.3599923329427348e+01
-3.3269491818415524e+01
-3.2938348131306718e+01
-3.2606426243712782e+01
-3.2273747806661582e+01
-3.1940311181545283e+01
-3.1606109032428996e+01
-3.1271177280638188e+01
-3.0935587118314587e+01
-3.0599349452083157e+01
-3.0262437879626063e+01
-2.9924805190270238e+01
-2.9586436283385421e+01
-2.9247381664849197e+01
-2.8907677852088820e+01
-2.8567311269349442e+01
-2.8226247901946664e+01
-2.7884453086625701e+01
-2.7541910908508687e+01
-2.7198767248818875e+01
-2.6855057250097328e+01
-2.6510669185953869e+01
-2.6165612954228557e+01
-2.5819900845231189e+01
-2.5473536970061833e+01
-2.5126525188300906e+01
-2.4778874643448010e+01
-2.4430598340435143e+01
-2.4081710880981781e+01
-2.3732218515507057e+01
-2.3382126003410352e+01
-2.3031438205944809e+01
-2.2680161277515861e+01
-2.2328299117007589e+01
-2.1975863255062343e+01
-2.1622864529933416e+01
-2.1269304221180768e+01
-2.0915185267261581e+01
-2.0560511737260548e+01
-2.0205288416570326e+01
-1.9849520547634778e+01
-1.9493213679657149e+01
-1.9136373572902453e+01
-1.8779006118077490e+01
-1.8421117292461854e+01
-1.8062713138863710e+01
-1.7703799741971384e+01
-1.7344383217550401e+01
-1.6984469713756560e+01
-1.6624065396632037e+01
-1.6263176437331634e+01
-1.5901809023914693e+01
-1.5539969366853406e+01
-1.5177663685332762e+01
-1.4814898206872932e+01
-1.4451679172926484e+01
-1.4088012841085813e+01
-1.3723905475857332e+01
-1.3359363348039219e+01
-1.2994392739698492e+01
-1.2628999943091330e+01
-1.2263191260942120e+01
-1.1896973006507624e+01
-1.1530351503081256e+01
-1.1163333084655195e+01
-1.0795924093979684e+01
-1.0428130884842579e+01
-1.0059959819900184e+01
-9.6914172710809066e+00
-9.3225096229102462e+00
-8.9532432627254295e+00
-8.5836245935306739e+00
-8.2136600201283141e+00
-7.8433559685079546e+00
-7.4727188736141299e+00
-7.1017551645895258e+00
-6.7304712884701736e+00
-6.3588736996296795e+00
-5.9869688658854638e+00
-5.6147632467780273e+00
-5.2422633318056100e+00
-4.8694756097784735e+00
-4.4964065478225752e+00
-4.1230626557447785e+00
-3.7494504533546600e+00
-3.3755764987820518e+00
-3.0014473064704932e+00
-2.6270694241054930e+00
-2.2524492993519818e+00
-1.8775937560623763e+00
-1.5025086785622193e+00
-1.1272023895386216e+00
-7.5167693450599016e-01
-3.7595055177700021e-01
0.0000000000000000e+00


SCALARS diameter float
LOOKUP_TABLE default
9.9674921455136933e-01
9.9679334540802855e-01
9.9683182481260657e-01
9.9686672360745909e-01
9.9690111181682284e-01
9.9693585445329447e-01
9.9696598873882647e-01
9.9699603527512015e-01
9.9703018889057904e-01
9.9706289277560090e-01
9.9709583969962789e-01
9.9712914429629584e-01
9.9716223700064033e-01
9.9719137472933950e-01
9.9721831120028226e-01
9.9724565352498851e-01
9.9727471421892055e-01
9.9730623774668259e-01
9.9733641565328102e-01
9.9736453651719992e-01
9.9739264320731380e-01
9.9742268623524699e-01
9.9745513363673954e-01
9.9749018767037068e-01
9.9752217759491701e-01
9.9754642926343307e-01
9.9757726030347538e-01
9.9760836672179409e-01
9.9763954447450787e-01
9.9767084812678253e-01
9.9770272292066520e-01
9.9773469375324975e-01
9.9776671950616735e-01
9.9779834762447617e-01
9.9782992354777289e-01
9.9786157350978566e-01
9.9789330072404747e-01
9.9792510644951049e-01
9.9795699048685904e-01
9.9798891347701935e-01
9.9802029023635641e-01
9.9805173921991652e-01
9.9808326311210804e-01
9.9811485959737389e-01
9.9814652751409016e-01
9.9817826612121929e-01
9.9821007456886701e-01
9.9824195110513270e-01
9.9827389470900063e-01
9.9830590444724776e-01
9.9833797917806089e-01
9.9837011761555838e-01
9.9840231896885900e-01
9.9843458166614418e-01
9.9846690452457376e-01
9.9849928683643785e-01
9.9853172788395828e-01
9.9856422594072192e-01
9.9859677998644891e-01
9.9862938905860510e-01
9.9866205206689307e-01
9.9869476757251152e-01
9.9872753446918650e-01
9.9876035194893042e-01
9.9879321889601236e-01
9.9882613422575384e-01
9.9885909685048369e-01
9.9889210564556041e-01
9.9892515949901250e-01
9.9895825727818621e-01
9.9899139785322666e-01
9.9902458016773599e-01
9.9905780298650126e-01
9.9909106540428871e-01
9.9912436604405352e-01
9.9915770400833037e-01
9.9919107826405162e-01
9.9922448736149672e-01
9.9925793074831271e-01
9.9929140581785969e-01
9.9932491329543105e-01
9.9935845095046083e-01
9.9939201832754843e-01
9.9942561358216953e-01
9.9945923643148482e-01
9.9949288559669691e-01
9.9952655889923558e-01
9.9956025770580881e-01
9.9959397982793252e-01
9.9962772339589723e-01
9.9966148673278121e-01
9.9969526791570895e-01
9.9972906912976500e-01
9.9976288750247322e-01
9.9979672166736977e-01
9.9983057039842249e-01
9.9986443305745210e-01
9.9989830836358673e-01
9.9993219499867803e-01
9.9996609106506584e-01
9.9999999815204188e-01


SCALARS iters float
LOOKUP_TABLE default
3.0000000000000000e+00
3.0000000000000000e+00
3.0000000000000000e+00
3.0000000000000000e+00
3.0000000000000000e+00
3.0000000000000000e+00
3.0000000000000000e+00
3.0000000000000000e+00
3.0000000000000000e+00
3.0000000000000000e+00
3.0000000000000000e+00
3.0000000000000000e+00
3.0000000000000000e+00
3.0000000000000000e+00
3.0000000000000000e+00
3.0000000000000000e+00
3.0000000000000000e+00
3.0000000000000000e+00
3.0000000000000000e+00
3.0000000000000000e+00
3.0000000000000000e+00
3.0000000000000000e+00
3.0000000000000000e+00
3.0000000000000000e+00
3.0000000000000000e+00
3.0000000000000000e+00
3.0000000000000000e+00
3.0000000000000000e+00
3.0000000000000000e+00
3.0000000000000000e+00
3.0000000000000000e+00
3.0000000000000000e+00
3.0000000000000000e+00
3.0000000000000000e+00
3.0000000000000000e+00
3.0000000000000000e+00
3.0000000000000000e+00
3.0000000000000000e+00
3.0000000000000000e+00
3.0000000000000000e+00
3.0000000000000000e+00
3.0000000000000000e+00
3.0000000000000000e+00
3.0000000000000000e+00
3.0000000000000000e+00
3.0000000000000000e+00
3.0000000000000000e+00
3.0000000000000000e+00
3.0000000000000000e+00
3.0000000000000000e+00
3.0000000000000000e+00
3.0000000000000000e+00
3.0000000000000000e+00
3.0000000000000000e+00
3.0000000000000000e+00
3.0000000000000000e+00
3.0000000000000000e+00
3.0000000000000000e+00
3.0000000000000000e+00
3.0000000000000000e+00
3.0000000000000000e+00
3.0000000000000000e+00
3.0000000000000000e+00
3.0000000000000000e+00
3.0000000000000000e+00
3.0000000000000000e+00
3.0000000000000000e+00
3.0000000000000000e+00
3.0000000000000000e+00
3.0000000000000000e+00
3.0000000000000000e+00
3.0000000000000000e+00
3.0000000000000000e+00
3.0000000000000000e+00
3.0000000000000000e+00
3.0000000000000000e+00
3.0000000000000000e+00
3.0000000000000000e+00
3.0000000000000000e+00
3.0000000000000000e+00
3.0000000000000000e+00
3.0000000000000000e+00
3.0000000000000000e+00
3.0000000000000000e+00
3.0000000000000000e+00
3.0000000000000000e+00
3.0000000000000000e+00
3.0000000000000000e+00
3.0000000000000000e+00
3.0000000000000000e+00
3.0000000000000000e+00
3.0000000000000000e+00
3.0000000000000000e+00
3.0000000000000000e+00
3.0000000000000000e+00
3.0000000000000000e+00
3.0000000000000000e+00
3.0000000000000000e+00
3.0000000000000000e+00
3.0000000000000000e+00
3.0000000000000000e+00


