# vtk DataFile Version 2.0

ASCII

DATASET UNSTRUCTURED_GRID

POINTS 101 float

0.0000000000000000e+00 0.0000000000000000e+00 0.0000000000000000e+00
1.0000000000000001e-01 0.0000000000000000e+00 0.0000000000000000e+00
2.0000000000000001e-01 0.0000000000000000e+00 0.0000000000000000e+00
3.0000000000000004e-01 0.0000000000000000e+00 0.0000000000000000e+00
4.0000000000000002e-01 0.0000000000000000e+00 0.0000000000000000e+00
5.0000000000000000e-01 0.0000000000000000e+00 0.0000000000000000e+00
6.0000000000000009e-01 0.0000000000000000e+00 0.0000000000000000e+00
7.0000000000000007e-01 0.0000000000000000e+00 0.0000000000000000e+00
8.0000000000000004e-01 0.0000000000000000e+00 0.0000000000000000e+00
9.0000000000000002e-01 0.0000000000000000e+00 0.0000000000000000e+00
1.0000000000000000e+00 0.0000000000000000e+00 0.0000000000000000e+00
1.1000000000000001e+00 0.0000000000000000e+00 0.0000000000000000e+00
1.2000000000000002e+00 0.0000000000000000e+00 0.0000000000000000e+00
1.3000000000000000e+00 0.0000000000000000e+00 0.0000000000000000e+00
1.4000000000000001e+00 0.0000000000000000e+00 0.0000000000000000e+00
1.5000000000000000e+00 0.0000000000000000e+00 0.0000000000000000e+00
1.6000000000000001e+00 0.0000000000000000e+00 0.0000000000000000e+00
1.7000000000000002e+00 0.0000000000000000e+00 0.0000000000000000e+00
1.8000000000000000e+00 0.0000000000000000e+00 0.0000000000000000e+00
1.9000000000000001e+00 0.0000000000000000e+00 0.0000000000000000e+00
2.0000000000000000e+00 0.0000000000000000e+00 0.0000000000000000e+00
2.1000000000000001e+00 0.0000000000000000e+00 0.0000000000000000e+00
2.2000000000000002e+00 0.0000000000000000e+00 0.0000000000000000e+00
2.3000000000000003e+00 0.0000000000000000e+00 0.0000000000000000e+00
2.4000000000000004e+00 0.0000000000000000e+00 0.0000000000000000e+00
2.5000000000000000e+00 0.0000000000000000e+00 0.0000000000000000e+00
2.6000000000000001e+00 0.0000000000000000e+00 0.0000000000000000e+00
2.7000000000000002e+00 0.0000000000000000e+00 0.0000000000000000e+00
2.8000000000000003e+00 0.0000000000000000e+00 0.0000000000000000e+00
2.9000000000000004e+00 0.0000000000000000e+00 0.0000000000000000e+00
3.0000000000000000e+00 0.0000000000000000e+00 0.0000000000000000e+00
3.1000000000000001e+00 0.0000000000000000e+00 0.0000000000000000e+00
3.2000000000000002e+00 0.0000000000000000e+00 0.0000000000000000e+00
3.3000000000000003e+00 0.0000000000000000e+00 0.0000000000000000e+00
3.4000000000000004e+00 0.0000000000000000e+00 0.0000000000000000e+00
3.5000000000000000e+00 0.0000000000000000e+00 0.0000000000000000e+00
3.6000000000000001e+00 0.0000000000000000e+00 0.0000000000000000e+00
3.7000000000000002e+00 0.0000000000000000e+00 0.0000000000000000e+00
3.8000000000000003e+00 0.0000000000000000e+00 0.0000000000000000e+00
3.9000000000000004e+00 0.0000000000000000e+00 0.0000000000000000e+00
4.0000000000000000e+00 0.0000000000000000e+00 0.0000000000000000e+00
4.1000000000000005e+00 0.0000000000000000e+00 0.0000000000000000e+00
4.2000000000000002e+00 0.0000000000000000e+00 0.0000000000000000e+00
4.2999999999999998e+00 0.0000000000000000e+00 0.0000000000000000e+00
4.4000000000000004e+00 0.0000000000000000e+00 0.0000000000000000e+00
4.5000000000000000e+00 0.0000000000000000e+00 0.0000000000000000e+00
4.6000000000000005e+00 0.0000000000000000e+00 0.0000000000000000e+00
4.7000000000000002e+00 0.0000000000000000e+00 0.0000000000000000e+00
4.8000000000000007e+00 0.0000000000000000e+00 0.0000000000000000e+00
4.9000000000000004e+00 0.0000000000000000e+00 0.0000000000000000e+00
5.0000000000000000e+00 0.0000000000000000e+00 0.0000000000000000e+00
5.1000000000000005e+00 0.0000000000000000e+00 0.0000000000000000e+00
5.2000000000000002e+00 0.0000000000000000e+00 0.0000000000000000e+00
5.3000000000000007e+00 0.0000000000000000e+00 0.0000000000000000e+00
5.4000000000000004e+00 0.0000000000000000e+00 0.0000000000000000e+00
5.5000000000000000e+00 0.0000000000000000e+00 0.0000000000000000e+00
5.6000000000000005e+00 0.0000000000000000e+00 0.0000000000000000e+00
5.7000000000000002e+00 0.0000000000000000e+00 0.0000000000000000e+00
5.8000000000000007e+00 0.0000000000000000e+00 0.0000000000000000e+00
5.9000000000000004e+00 0.0000000000000000e+00 0.0000000000000000e+00
6.0000000000000000e+00 0.0000000000000000e+00 0.0000000000000000e+00
6.1000000000000005e+00 0.0000000000000000e+00 0.0000000000000000e+00
6.2000000000000002e+00 0.0000000000000000e+00 0.0000000000000000e+00
6.3000000000000007e+00 0.0000000000000000e+00 0.0000000000000000e+00
6.4000000000000004e+00 0.0000000000000000e+00 0.0000000000000000e+00
6.5000000000000000e+00 0.0000000000000000e+00 0.0000000000000000e+00
6.6000000000000005e+00 0.0000000000000000e+00 0.0000000000000000e+00
6.7000000000000002e+00 0.0000000000000000e+00 0.0000000000000000e+00
6.8000000000000007e+00 0.0000000000000000e+00 0.0000000000000000e+00
6.9000000000000004e+00 0.0000000000000000e+00 0.0000000000000000e+00
7.0000000000000000e+00 0.0000000000000000e+00 0.0000000000000000e+00
7.1000000000000005e+00 0.0000000000000000e+00 0.0000000000000000e+00
7.2000000000000002e+00 0.0000000000000000e+00 0.0000000000000000e+00
7.3000000000000007e+00 0.0000000000000000e+00 0.0000000000000000e+00
7.4000000000000004e+00 0.0000000000000000e+00 0.0000000000000000e+00
7.5000000000000000e+00 0.0000000000000000e+00 0.0000000000000000e+00
7.6000000000000005e+00 0.0000000000000000e+00 0.0000000000000000e+00
7.7000000000000002e+00 0.0000000000000000e+00 0.0000000000000000e+00
7.8000000000000007e+00 0.0000000000000000e+00 0.0000000000000000e+00
7.9000000000000004e+00 0.0000000000000000e+00 0.0000000000000000e+00
8.0000000000000000e+00 0.0000000000000000e+00 0.0000000000000000e+00
8.0999999999999996e+00 0.0000000000000000e+00 0.0000000000000000e+00
8.2000000000000011e+00 0.0000000000000000e+00 0.0000000000000000e+00
8.3000000000000007e+00 0.0000000000000000e+00 0.0000000000000000e+00
8.4000000000000004e+00 0.0000000000000000e+00 0.0000000000000000e+00
8.5000000000000000e+00 0.0000000000000000e+00 0.0000000000000000e+00
8.5999999999999996e+00 0.0000000000000000e+00 0.0000000000000000e+00
8.7000000000000011e+00 0.0000000000000000e+00 0.0000000000000000e+00
8.8000000000000007e+00 0.0000000000000000e+00 0.0000000000000000e+00
8.9000000000000004e+00 0.0000000000000000e+00 0.0000000000000000e+00
9.0000000000000000e+00 0.0000000000000000e+00 0.0000000000000000e+00
9.0999999999999996e+00 0.0000000000000000e+00 0.0000000000000000e+00
9.2000000000000011e+00 0.0000000000000000e+00 0.0000000000000000e+00
9.3000000000000007e+00 0.0000000000000000e+00 0.0000000000000000e+00
9.4000000000000004e+00 0.0000000000000000e+00 0.0000000000000000e+00
9.5000000000000000e+00 0.0000000000000000e+00 0.0000000000000000e+00
9.6000000000000014e+00 0.0000000000000000e+00 0.0000000000000000e+00
9.7000000000000011e+00 0.0000000000000000e+00 0.0000000000000000e+00
9.8000000000000007e+00 0.0000000000000000e+00 0.0000000000000000e+00
9.9000000000000004e+00 0.0000000000000000e+00 0.0000000000000000e+00
1.0000000000000000e+01 0.0000000000000000e+00 0.0000000000000000e+00

POINT_DATA 101

VECTORS velocity float
5.7486351597385390e+00 0.0000000000000000e+00 0.0000000000000000e+00
5.7489629750837201e+00 0.0000000000000000e+00 0.0000000000000000e+00
5.7492993947692206e+00 0.0000000000000000e+00 0.0000000000000000e+00
5.7496379573991154e+00 0.0000000000000000e+00 0.0000000000000000e+00
5.7499766687059939e+00 0.0000000000000000e+00 0.0000000000000000e+00
5.7503143314986929e+00 0.0000000000000000e+00 0.0000000000000000e+00
5.7506540545996572e+00 0.0000000000000000e+00 0.0000000000000000e+00
5.7509924681952809e+00 0.0000000000000000e+00 0.0000000000000000e+00
5.7513204217754135e+00 0.0000000000000000e+00 0.0000000000000000e+00
5.7516384998048986e+00 0.0000000000000000e+00 0.0000000000000000e+00
5.7519489963861217e+00 0.0000000000000000e+00 0.0000000000000000e+00
5.7522529504438165e+00 0.0000000000000000e+00 0.0000000000000000e+00
5.7525530335807806e+00 0.0000000000000000e+00 0.0000000000000000e+00
5.7528533300166780e+00 0.0000000000000000e+00 0.0000000000000000e+00
5.7531525392183864e+00 0.0000000000000000e+00 0.0000000000000000e+00
5.7534502934923477e+00 0.0000000000000000e+00 0.0000000000000000e+00
5.7537426819137680e+00 0.0000000000000000e+00 0.0000000000000000e+00
5.7540235174044438e+00 0.0000000000000000e+00 0.0000000000000000e+00
5.7542977954141969e+00 0.0000000000000000e+00 0.0000000000000000e+00
5.7545693350785481e+00 0.0000000000000000e+00 0.0000000000000000e+00
5.7548375679368782e+00 0.0000000000000000e+00 0.0000000000000000e+00
5.7551037178624895e+00 0.0000000000000000e+00 0.0000000000000000e+00
5.7553673566662935e+00 0.0000000000000000e+00 0.0000000000000000e+00
5.7556260485870396e+00 0.0000000000000000e+00 0.0000000000000000e+00
5.7558773440853876e+00 0.0000000000000000e+00 0.0000000000000000e+00
5.7561221781505916e+00 0.0000000000000000e+00 0.0000000000000000e+00
5.7563639455508948e+00 0.0000000000000000e+00 0.0000000000000000e+00
5.7566013792345609e+00 0.0000000000000000e+00 0.0000000000000000e+00
5.7568344108851646e+00 0.0000000000000000e+00 0.0000000000000000e+00
5.7570626636722029e+00 0.0000000000000000e+00 0.0000000000000000e+00
5.7572862823843174e+00 0.0000000000000000e+00 0.0000000000000000e+00
5.7575056051293636e+00 0.0000000000000000e+00 0.0000000000000000e+00
5.7577210054266255e+00 0.0000000000000000e+00 0.0000000000000000e+00
5.7579317382674962e+00 0.0000000000000000e+00 0.0000000000000000e+00
5.7581375016050300e+00 0.0000000000000000e+00 0.0000000000000000e+00
5.7583384515458240e+00 0.0000000000000000e+00 0.0000000000000000e+00
5.7585345558969703e+00 0.0000000000000000e+00 0.0000000000000000e+00
5.7587258556903835e+00 0.0000000000000000e+00 0.0000000000000000e+00
5.7589121922591451e+00 0.0000000000000000e+00 0.0000000000000000e+00
5.7590940649583100e+00 0.0000000000000000e+00 0.0000000000000000e+00
5.7592720485818907e+00 0.0000000000000000e+00 0.0000000000000000e+00
5.7594456557807039e+00 0.0000000000000000e+00 0.0000000000000000e+00
5.7596147803758759e+00 0.0000000000000000e+00 0.0000000000000000e+00
5.7597793633382821e+00 0.0000000000000000e+00 0.0000000000000000e+00
5.7599393693989089e+00 0.0000000000000000e+00 0.0000000000000000e+00
5.7600947730432530e+00 0.0000000000000000e+00 0.0000000000000000e+00
5.7602455570298590e+00 0.0000000000000000e+00 0.0000000000000000e+00
5.7603917157565414e+00 0.0000000000000000e+00 0.0000000000000000e+00
5.7605332446859840e+00 0.0000000000000000e+00 0.0000000000000000e+00
5.7606701389288313e+00 0.0000000000000000e+00 0.0000000000000000e+00
5.7608023930445889e+00 0.0000000000000000e+00 0.0000000000000000e+00
5.7609300035512403e+00 0.0000000000000000e+00 0.0000000000000000e+00
5.7610529675001212e+00 0.0000000000000000e+00 0.0000000000000000e+00
5.7611712827634332e+00 0.0000000000000000e+00 0.0000000000000000e+00
5.7612849474788650e+00 0.0000000000000000e+00 0.0000000000000000e+00
5.7613939596222687e+00 0.0000000000000000e+00 0.0000000000000000e+00
5.7614983163540430e+00 0.0000000000000000e+00 0.0000000000000000e+00
5.7615980147974613e+00 0.0000000000000000e+00 0.0000000000000000e+00
5.7616930543826061e+00 0.0000000000000000e+00 0.0000000000000000e+00
5.7617834332820559e+00 0.0000000000000000e+00 0.0000000000000000e+00
5.7618691498146930e+00 0.0000000000000000e+00 0.0000000000000000e+00
5.7619502034143188e+00 0.0000000000000000e+00 0.0000000000000000e+00
5.7620265935955102e+00 0.0000000000000000e+00 0.0000000000000000e+00
5.7620983183113701e+00 0.0000000000000000e+00 0.0000000000000000e+00
5.7621653761823977e+00 0.0000000000000000e+00 0.0000000000000000e+00
5.7622277661523178e+00 0.0000000000000000e+00 0.0000000000000000e+00
5.7622854871498870e+00 0.0000000000000000e+00 0.0000000000000000e+00
5.7623385382810035e+00 0.0000000000000000e+00 0.0000000000000000e+00
5.7623869188113757e+00 0.0000000000000000e+00 0.0000000000000000e+00
5.7624306280629467e+00 0.0000000000000000e+00 0.0000000000000000e+00
5.7624696656119276e+00 0.0000000000000000e+00 0.0000000000000000e+00
5.7625040314235951e+00 0.0000000000000000e+00 0.0000000000000000e+00
5.7625337258440803e+00 0.0000000000000000e+00 0.0000000000000000e+00
5.7625587489651373e+00 0.0000000000000000e+00 0.0000000000000000e+00
5.7625791012417658e+00 0.0000000000000000e+00 0.0000000000000000e+00
5.7625947824111723e+00 0.0000000000000000e+00 0.0000000000000000e+00
5.7626057925176122e+00 0.0000000000000000e+00 0.0000000000000000e+00
5.7626121315903740e+00 0.0000000000000000e+00 0.0000000000000000e+00
5.7626138006424572e+00 0.0000000000000000e+00 0.0000000000000000e+00
5.7626108038445913e+00 0.0000000000000000e+00 0.0000000000000000e+00
5.7626031396389115e+00 0.0000000000000000e+00 0.0000000000000000e+00
5.7625908084023951e+00 0.0000000000000000e+00 0.0000000000000000e+00
5.7625738115056580e+00 0.0000000000000000e+00 0.0000000000000000e+00
5.7625521519221756e+00 0.0000000000000000e+00 0.0000000000000000e+00
5.7625258300446953e+00 0.0000000000000000e+00 0.0000000000000000e+00
5.7624948447599253e+00 0.0000000000000000e+00 0.0000000000000000e+00
5.7624591957050857e+00 0.0000000000000000e+00 0.0000000000000000e+00
5.7624188844303532e+00 0.0000000000000000e+00 0.0000000000000000e+00
5.7623739215360530e+00 0.0000000000000000e+00 0.0000000000000000e+00
5.7623243045441521e+00 0.0000000000000000e+00 0.0000000000000000e+00
5.7622700364088759e+00 0.0000000000000000e+00 0.0000000000000000e+00
5.7622111140641143e+00 0.0000000000000000e+00 0.0000000000000000e+00
5.7621475453315858e+00 0.0000000000000000e+00 0.0000000000000000e+00
5.7620793257098022e+00 0.0000000000000000e+00 0.0000000000000000e+00
5.7620064775689137e+00 0.0000000000000000e+00 0.0000000000000000e+00
5.7619289503895992e+00 0.0000000000000000e+00 0.0000000000000000e+00
5.7618468867237755e+00 0.0000000000000000e+00 0.0000000000000000e+00
5.7617599228203042e+00 0.0000000000000000e+00 0.0000000000000000e+00
5.7616690160316519e+00 0.0000000000000000e+00 0.0000000000000000e+00
5.7615717054648012e+00 0.0000000000000000e+00 0.0000000000000000e+00
5.7614743948979505e+00 0.0000000000000000e+00 0.0000000000000000e+00


SCALARS pressure float
LOOKUP_TABLE default
-2.1009570115533787e+01
-2.0800352535580171e+01
-2.0591134955626554e+01
-2.0381958594369834e+01
-2.0172810633128190e+01
-1.9963683460239793e+01
-1.9754571927592167e+01
-1.9545490887126192e+01
-1.9336426202474168e+01
-1.9127326871962094e+01
-1.8918183078306932e+01
-1.8709002922168864e+01
-1.8499792511717672e+01
-1.8290567591662072e+01
-1.8081354057763900e+01
-1.7872153224108665e+01
-1.7662965964365938e+01
-1.7453772351739456e+01
-1.7244529633888707e+01
-1.7035247823980104e+01
-1.6825951034673871e+01
-1.6616646150356555e+01
-1.6407343851411685e+01
-1.6198046985492063e+01
-1.5988742606333393e+01
-1.5779409328082027e+01
-1.5570042947773429e+01
-1.5360659725431148e+01
-1.5151258308449188e+01
-1.4941837870335787e+01
-1.4732397016400190e+01
-1.4522937176084753e+01
-1.4313461093554432e+01
-1.4103971803095668e+01
-1.3894465616497344e+01
-1.3684938930969631e+01
-1.3475390686166651e+01
-1.3265819714537944e+01
-1.3056225219654806e+01
-1.2846605574216833e+01
-1.2636962123224396e+01
-1.2427297787525385e+01
-1.2217610949175272e+01
-1.2007900507575695e+01
-1.1798165672856332e+01
-1.1588405822397576e+01
-1.1378620401739283e+01
-1.1168808898899069e+01
-1.0958970865441605e+01
-1.0749105872563236e+01
-1.0539213491432980e+01
-1.0329293285894448e+01
-1.0119344823919789e+01
-9.9093676740241641e+00
-9.6993614068949618e+00
-9.4893255932717260e+00
-9.2792598015004160e+00
-9.0691635937455857e+00
-8.8590365271021820e+00
-8.6488781664734908e+00
-8.4386880712480643e+00
-8.2284657983683136e+00
-8.0182109092955720e+00
-7.8079229670892865e+00
-7.5976015261849259e+00
-7.3872461403295357e+00
-7.1768563633997706e+00
-6.9664317482097005e+00
-6.7559718469901409e+00
-6.5454762116282517e+00
-6.3349443935209440e+00
-6.1243759448027362e+00
-5.9137704199104242e+00
-5.7031273764938222e+00
-5.4924463718629344e+00
-5.2817269655884012e+00
-5.0709687140845450e+00
-4.8601711737199418e+00
-4.6493339011343213e+00
-4.4384564585009381e+00
-4.2275384285457651e+00
-4.0165793721659400e+00
-3.8055788537623911e+00
-3.5945364444076096e+00
-3.3834517253361716e+00
-3.1723242701527816e+00
-2.9611536456800609e+00
-2.7499394177452130e+00
-2.5386811623455241e+00
-2.3273785104226747e+00
-2.1160310440641612e+00
-1.9046383582158710e+00
-1.6932000254384265e+00
-1.4817156665061852e+00
-1.2701848603103343e+00
-1.0586072977811336e+00
-8.4698237954354405e-01
-6.3531028821743096e-01
-4.2358916765304488e-01
-2.1182249077788565e-01
0.0000000000000000e+00


SCALARS diameter float
LOOKUP_TABLE default
9.9809691764260733e-01
9.9812258488342120e-01
9.9814313654072195e-01
9.9816311900525867e-01
9.9818216181565589e-01
9.9820121190335276e-01
9.9821885865427018e-01
9.9823565907281708e-01
9.9825449539814470e-01
9.9827441028101360e-01
9.9829455110115317e-01
9.9831468628620956e-01
9.9833451921849969e-01
9.9835296681848973e-01
9.9837080086742402e-01
9.9838846496632749e-01
9.9840628104481688e-01
9.9842655113682788e-01
9.9844658957812149e-01
9.9846534441866952e-01
9.9848393664420987e-01
9.9850225279421245e-01
9.9852027329733106e-01
9.9853892851618908e-01
9.9855831823031704e-01
9.9857805254209697e-01
9.9859670888092245e-01
9.9861534181637956e-01
9.9863399209980619e-01
9.9865266715314849e-01
9.9867144473525093e-01
9.9869024533768902e-01
9.9870894800774357e-01
9.9872781749454653e-01
9.9874684753181875e-01
9.9876588861271354e-01
9.9878494234216231e-01
9.9880400981354323e-01
9.9882309050985330e-01
9.9884216556903438e-01
9.9886092535325255e-01
9.9887969397661003e-01
9.9889847292008982e-01
9.9891726175592543e-01
9.9893606046497563e-01
9.9895487003082539e-01
9.9897369142046177e-01
9.9899252251643955e-01
9.9901136288330283e-01
9.9903021260052371e-01
9.9904907221049610e-01
9.9906794139819743e-01
9.9908681992893289e-01
9.9910570745389582e-01
9.9912460361639144e-01
9.9914350834546672e-01
9.9916242148599221e-01
9.9918134348292986e-01
9.9920027336870687e-01
9.9921921109965262e-01
9.9923815655084192e-01
9.9925710931867229e-01
9.9927606895205845e-01
9.9929503573882872e-01
9.9931400957269856e-01
9.9933299018389943e-01
9.9935197741920789e-01
9.9937097109994721e-01
9.9938997099075511e-01
9.9940897691447261e-01
9.9942798863041493e-01
9.9944700589213264e-01
9.9946602835178389e-01
9.9948505589440928e-01
9.9950408829870108e-01
9.9952312539121924e-01
9.9954216737950696e-01
9.9956121351935856e-01
9.9958026430299618e-01
9.9959931768115873e-01
9.9961837496165218e-01
9.9963743610701106e-01
9.9965650049852406e-01
9.9967556788446732e-01
9.9969463745719778e-01
9.9971371093106831e-01
9.9973278711829405e-01
9.9975186741593114e-01
9.9977094690149360e-01
9.9979002884832102e-01
9.9980911214955992e-01
9.9982819773751230e-01
9.9984728492480068e-01
9.9986637244190513e-01
9.9988546113183174e-01
9.9990455003712575e-01
9.9992363969316167e-01
9.9994272971896836e-01
9.9996181933649664e-01
9.9998090713342791e-01
9.9999999344812429e-01


SCALARS iters float
LOOKUP_TABLE default
5.0000000000000000e+00
5.0000000000000000e+00
5.0000000000000000e+00
5.0000000000000000e+00
5.0000000000000000e+00
5.0000000000000000e+00
5.0000000000000000e+00
5.0000000000000000e+00
5.0000000000000000e+00
5.0000000000000000e+00
5.0000000000000000e+00
5.0000000000000000e+00
5.0000000000000000e+00
5.0000000000000000e+00
5.0000000000000000e+00
5.0000000000000000e+00
5.0000000000000000e+00
5.0000000000000000e+00
5.0000000000000000e+00
5.0000000000000000e+00
5.0000000000000000e+00
5.0000000000000000e+00
5.0000000000000000e+00
5.0000000000000000e+00
5.0000000000000000e+00
5.0000000000000000e+00
5.0000000000000000e+00
5.0000000000000000e+00
5.0000000000000000e+00
5.0000000000000000e+00
5.0000000000000000e+00
5.0000000000000000e+00
5.0000000000000000e+00
5.0000000000000000e+00
5.0000000000000000e+00
5.0000000000000000e+00
5.0000000000000000e+00
5.0000000000000000e+00
5.0000000000000000e+00
5.0000000000000000e+00
5.0000000000000000e+00
5.0000000000000000e+00
5.0000000000000000e+00
5.0000000000000000e+00
5.0000000000000000e+00
5.0000000000000000e+00
5.0000000000000000e+00
5.0000000000000000e+00
5.0000000000000000e+00
5.0000000000000000e+00
5.0000000000000000e+00
5.0000000000000000e+00
5.0000000000000000e+00
5.0000000000000000e+00
5.0000000000000000e+00
5.0000000000000000e+00
5.0000000000000000e+00
5.0000000000000000e+00
5.0000000000000000e+00
5.0000000000000000e+00
5.0000000000000000e+00
5.0000000000000000e+00
5.0000000000000000e+00
5.0000000000000000e+00
5.0000000000000000e+00
5.0000000000000000e+00
5.0000000000000000e+00
5.0000000000000000e+00
5.0000000000000000e+00
5.0000000000000000e+00
5.0000000000000000e+00
5.0000000000000000e+00
5.0000000000000000e+00
5.0000000000000000e+00
5.0000000000000000e+00
5.0000000000000000e+00
5.0000000000000000e+00
5.0000000000000000e+00
5.0000000000000000e+00
5.0000000000000000e+00
5.0000000000000000e+00
5.0000000000000000e+00
5.0000000000000000e+00
5.0000000000000000e+00
5.0000000000000000e+00
5.0000000000000000e+00
5.0000000000000000e+00
5.0000000000000000e+00
5.0000000000000000e+00
5.0000000000000000e+00
5.0000000000000000e+00
5.0000000000000000e+00
5.0000000000000000e+00
5.0000000000000000e+00
5.0000000000000000e+00
5.0000000000000000e+00
5.0000000000000000e+00
5.0000000000000000e+00
5.0000000000000000e+00
5.0000000000000000e+00
5.0000000000000000e+00


