# vtk DataFile Version 2.0

ASCII

DATASET UNSTRUCTURED_GRID

POINTS 101 float

0.0000000000000000e+00 0.0000000000000000e+00 0.0000000000000000e+00
1.0000000000000001e-01 0.0000000000000000e+00 0.0000000000000000e+00
2.0000000000000001e-01 0.0000000000000000e+00 0.0000000000000000e+00
3.0000000000000004e-01 0.0000000000000000e+00 0.0000000000000000e+00
4.0000000000000002e-01 0.0000000000000000e+00 0.0000000000000000e+00
5.0000000000000000e-01 0.0000000000000000e+00 0.0000000000000000e+00
6.0000000000000009e-01 0.0000000000000000e+00 0.0000000000000000e+00
7.0000000000000007e-01 0.0000000000000000e+00 0.0000000000000000e+00
8.0000000000000004e-01 0.0000000000000000e+00 0.0000000000000000e+00
9.0000000000000002e-01 0.0000000000000000e+00 0.0000000000000000e+00
1.0000000000000000e+00 0.0000000000000000e+00 0.0000000000000000e+00
1.1000000000000001e+00 0.0000000000000000e+00 0.0000000000000000e+00
1.2000000000000002e+00 0.0000000000000000e+00 0.0000000000000000e+00
1.3000000000000000e+00 0.0000000000000000e+00 0.0000000000000000e+00
1.4000000000000001e+00 0.0000000000000000e+00 0.0000000000000000e+00
1.5000000000000000e+00 0.0000000000000000e+00 0.0000000000000000e+00
1.6000000000000001e+00 0.0000000000000000e+00 0.0000000000000000e+00
1.7000000000000002e+00 0.0000000000000000e+00 0.0000000000000000e+00
1.8000000000000000e+00 0.0000000000000000e+00 0.0000000000000000e+00
1.9000000000000001e+00 0.0000000000000000e+00 0.0000000000000000e+00
2.0000000000000000e+00 0.0000000000000000e+00 0.0000000000000000e+00
2.1000000000000001e+00 0.0000000000000000e+00 0.0000000000000000e+00
2.2000000000000002e+00 0.0000000000000000e+00 0.0000000000000000e+00
2.3000000000000003e+00 0.0000000000000000e+00 0.0000000000000000e+00
2.4000000000000004e+00 0.0000000000000000e+00 0.0000000000000000e+00
2.5000000000000000e+00 0.0000000000000000e+00 0.0000000000000000e+00
2.6000000000000001e+00 0.0000000000000000e+00 0.0000000000000000e+00
2.7000000000000002e+00 0.0000000000000000e+00 0.0000000000000000e+00
2.8000000000000003e+00 0.0000000000000000e+00 0.0000000000000000e+00
2.9000000000000004e+00 0.0000000000000000e+00 0.0000000000000000e+00
3.0000000000000000e+00 0.0000000000000000e+00 0.0000000000000000e+00
3.1000000000000001e+00 0.0000000000000000e+00 0.0000000000000000e+00
3.2000000000000002e+00 0.0000000000000000e+00 0.0000000000000000e+00
3.3000000000000003e+00 0.0000000000000000e+00 0.0000000000000000e+00
3.4000000000000004e+00 0.0000000000000000e+00 0.0000000000000000e+00
3.5000000000000000e+00 0.0000000000000000e+00 0.0000000000000000e+00
3.6000000000000001e+00 0.0000000000000000e+00 0.0000000000000000e+00
3.7000000000000002e+00 0.0000000000000000e+00 0.0000000000000000e+00
3.8000000000000003e+00 0.0000000000000000e+00 0.0000000000000000e+00
3.9000000000000004e+00 0.0000000000000000e+00 0.0000000000000000e+00
4.0000000000000000e+00 0.0000000000000000e+00 0.0000000000000000e+00
4.1000000000000005e+00 0.0000000000000000e+00 0.0000000000000000e+00
4.2000000000000002e+00 0.0000000000000000e+00 0.0000000000000000e+00
4.2999999999999998e+00 0.0000000000000000e+00 0.0000000000000000e+00
4.4000000000000004e+00 0.0000000000000000e+00 0.0000000000000000e+00
4.5000000000000000e+00 0.0000000000000000e+00 0.0000000000000000e+00
4.6000000000000005e+00 0.0000000000000000e+00 0.0000000000000000e+00
4.7000000000000002e+00 0.0000000000000000e+00 0.0000000000000000e+00
4.8000000000000007e+00 0.0000000000000000e+00 0.0000000000000000e+00
4.9000000000000004e+00 0.0000000000000000e+00 0.0000000000000000e+00
5.0000000000000000e+00 0.0000000000000000e+00 0.0000000000000000e+00
5.1000000000000005e+00 0.0000000000000000e+00 0.0000000000000000e+00
5.2000000000000002e+00 0.0000000000000000e+00 0.0000000000000000e+00
5.3000000000000007e+00 0.0000000000000000e+00 0.0000000000000000e+00
5.4000000000000004e+00 0.0000000000000000e+00 0.0000000000000000e+00
5.5000000000000000e+00 0.0000000000000000e+00 0.0000000000000000e+00
5.6000000000000005e+00 0.0000000000000000e+00 0.0000000000000000e+00
5.7000000000000002e+00 0.0000000000000000e+00 0.0000000000000000e+00
5.8000000000000007e+00 0.0000000000000000e+00 0.0000000000000000e+00
5.9000000000000004e+00 0.0000000000000000e+00 0.0000000000000000e+00
6.0000000000000000e+00 0.0000000000000000e+00 0.0000000000000000e+00
6.1000000000000005e+00 0.0000000000000000e+00 0.0000000000000000e+00
6.2000000000000002e+00 0.0000000000000000e+00 0.0000000000000000e+00
6.3000000000000007e+00 0.0000000000000000e+00 0.0000000000000000e+00
6.4000000000000004e+00 0.0000000000000000e+00 0.0000000000000000e+00
6.5000000000000000e+00 0.0000000000000000e+00 0.0000000000000000e+00
6.6000000000000005e+00 0.0000000000000000e+00 0.0000000000000000e+00
6.7000000000000002e+00 0.0000000000000000e+00 0.0000000000000000e+00
6.8000000000000007e+00 0.0000000000000000e+00 0.0000000000000000e+00
6.9000000000000004e+00 0.0000000000000000e+00 0.0000000000000000e+00
7.0000000000000000e+00 0.0000000000000000e+00 0.0000000000000000e+00
7.1000000000000005e+00 0.0000000000000000e+00 0.0000000000000000e+00
7.2000000000000002e+00 0.0000000000000000e+00 0.0000000000000000e+00
7.3000000000000007e+00 0.0000000000000000e+00 0.0000000000000000e+00
7.4000000000000004e+00 0.0000000000000000e+00 0.0000000000000000e+00
7.5000000000000000e+00 0.0000000000000000e+00 0.0000000000000000e+00
7.6000000000000005e+00 0.0000000000000000e+00 0.0000000000000000e+00
7.7000000000000002e+00 0.0000000000000000e+00 0.0000000000000000e+00
7.8000000000000007e+00 0.0000000000000000e+00 0.0000000000000000e+00
7.9000000000000004e+00 0.0000000000000000e+00 0.0000000000000000e+00
8.0000000000000000e+00 0.0000000000000000e+00 0.0000000000000000e+00
8.0999999999999996e+00 0.0000000000000000e+00 0.0000000000000000e+00
8.2000000000000011e+00 0.0000000000000000e+00 0.0000000000000000e+00
8.3000000000000007e+00 0.0000000000000000e+00 0.0000000000000000e+00
8.4000000000000004e+00 0.0000000000000000e+00 0.0000000000000000e+00
8.5000000000000000e+00 0.0000000000000000e+00 0.0000000000000000e+00
8.5999999999999996e+00 0.0000000000000000e+00 0.0000000000000000e+00
8.7000000000000011e+00 0.0000000000000000e+00 0.0000000000000000e+00
8.8000000000000007e+00 0.0000000000000000e+00 0.0000000000000000e+00
8.9000000000000004e+00 0.0000000000000000e+00 0.0000000000000000e+00
9.0000000000000000e+00 0.0000000000000000e+00 0.0000000000000000e+00
9.0999999999999996e+00 0.0000000000000000e+00 0.0000000000000000e+00
9.2000000000000011e+00 0.0000000000000000e+00 0.0000000000000000e+00
9.3000000000000007e+00 0.0000000000000000e+00 0.0000000000000000e+00
9.4000000000000004e+00 0.0000000000000000e+00 0.0000000000000000e+00
9.5000000000000000e+00 0.0000000000000000e+00 0.0000000000000000e+00
9.6000000000000014e+00 0.0000000000000000e+00 0.0000000000000000e+00
9.7000000000000011e+00 0.0000000000000000e+00 0.0000000000000000e+00
9.8000000000000007e+00 0.0000000000000000e+00 0.0000000000000000e+00
9.9000000000000004e+00 0.0000000000000000e+00 0.0000000000000000e+00
1.0000000000000000e+01 0.0000000000000000e+00 0.0000000000000000e+00

POINT_DATA 101

VECTORS velocity float
6.5094508202602741e+00 0.0000000000000000e+00 0.0000000000000000e+00
6.5094169988632782e+00 0.0000000000000000e+00 0.0000000000000000e+00
6.5093802925755408e+00 0.0000000000000000e+00 0.0000000000000000e+00
6.5093384346297993e+00 0.0000000000000000e+00 0.0000000000000000e+00
6.5092917437601630e+00 0.0000000000000000e+00 0.0000000000000000e+00
6.5092453533541947e+00 0.0000000000000000e+00 0.0000000000000000e+00
6.5092033682950685e+00 0.0000000000000000e+00 0.0000000000000000e+00
6.5091650434104178e+00 0.0000000000000000e+00 0.0000000000000000e+00
6.5091263694592989e+00 0.0000000000000000e+00 0.0000000000000000e+00
6.5090854968492380e+00 0.0000000000000000e+00 0.0000000000000000e+00
6.5090441398942547e+00 0.0000000000000000e+00 0.0000000000000000e+00
6.5090030557148353e+00 0.0000000000000000e+00 0.0000000000000000e+00
6.5089639072622916e+00 0.0000000000000000e+00 0.0000000000000000e+00
6.5089306617600240e+00 0.0000000000000000e+00 0.0000000000000000e+00
6.5089036076827611e+00 0.0000000000000000e+00 0.0000000000000000e+00
6.5088804202438633e+00 0.0000000000000000e+00 0.0000000000000000e+00
6.5088564698101665e+00 0.0000000000000000e+00 0.0000000000000000e+00
6.5088308541578499e+00 0.0000000000000000e+00 0.0000000000000000e+00
6.5088077862139562e+00 0.0000000000000000e+00 0.0000000000000000e+00
6.5087885172546809e+00 0.0000000000000000e+00 0.0000000000000000e+00
6.5087715310891001e+00 0.0000000000000000e+00 0.0000000000000000e+00
6.5087553553823012e+00 0.0000000000000000e+00 0.0000000000000000e+00
6.5087407929205643e+00 0.0000000000000000e+00 0.0000000000000000e+00
6.5087294613315407e+00 0.0000000000000000e+00 0.0000000000000000e+00
6.5087274051409922e+00 0.0000000000000000e+00 0.0000000000000000e+00
6.5087294444122126e+00 0.0000000000000000e+00 0.0000000000000000e+00
6.5087287549500372e+00 0.0000000000000000e+00 0.0000000000000000e+00
6.5087289244075182e+00 0.0000000000000000e+00 0.0000000000000000e+00
6.5087307805738828e+00 0.0000000000000000e+00 0.0000000000000000e+00
6.5087334180461500e+00 0.0000000000000000e+00 0.0000000000000000e+00
6.5087364190788373e+00 0.0000000000000000e+00 0.0000000000000000e+00
6.5087405511664063e+00 0.0000000000000000e+00 0.0000000000000000e+00
6.5087471220518065e+00 0.0000000000000000e+00 0.0000000000000000e+00
6.5087579142600447e+00 0.0000000000000000e+00 0.0000000000000000e+00
6.5087722569534980e+00 0.0000000000000000e+00 0.0000000000000000e+00
6.5087893994303592e+00 0.0000000000000000e+00 0.0000000000000000e+00
6.5088091644859691e+00 0.0000000000000000e+00 0.0000000000000000e+00
6.5088313118777963e+00 0.0000000000000000e+00 0.0000000000000000e+00
6.5088560519224661e+00 0.0000000000000000e+00 0.0000000000000000e+00
6.5088823605451491e+00 0.0000000000000000e+00 0.0000000000000000e+00
6.5089094179456826e+00 0.0000000000000000e+00 0.0000000000000000e+00
6.5089381443253584e+00 0.0000000000000000e+00 0.0000000000000000e+00
6.5089687136432728e+00 0.0000000000000000e+00 0.0000000000000000e+00
6.5090012301383684e+00 0.0000000000000000e+00 0.0000000000000000e+00
6.5090357579326277e+00 0.0000000000000000e+00 0.0000000000000000e+00
6.5090723382578659e+00 0.0000000000000000e+00 0.0000000000000000e+00
6.5091109962319571e+00 0.0000000000000000e+00 0.0000000000000000e+00
6.5091517442933773e+00 0.0000000000000000e+00 0.0000000000000000e+00
6.5091945920350200e+00 0.0000000000000000e+00 0.0000000000000000e+00
6.5092395467848991e+00 0.0000000000000000e+00 0.0000000000000000e+00
6.5092866132912865e+00 0.0000000000000000e+00 0.0000000000000000e+00
6.5093357959788989e+00 0.0000000000000000e+00 0.0000000000000000e+00
6.5093870969255807e+00 0.0000000000000000e+00 0.0000000000000000e+00
6.5094405175070955e+00 0.0000000000000000e+00 0.0000000000000000e+00
6.5094960600191190e+00 0.0000000000000000e+00 0.0000000000000000e+00
6.5095537261524505e+00 0.0000000000000000e+00 0.0000000000000000e+00
6.5096135172687477e+00 0.0000000000000000e+00 0.0000000000000000e+00
6.5096754353480772e+00 0.0000000000000000e+00 0.0000000000000000e+00
6.5097394820255294e+00 0.0000000000000000e+00 0.0000000000000000e+00
6.5098056583298956e+00 0.0000000000000000e+00 0.0000000000000000e+00
6.5098739651799793e+00 0.0000000000000000e+00 0.0000000000000000e+00
6.5099444040840977e+00 0.0000000000000000e+00 0.0000000000000000e+00
6.5100169763000597e+00 0.0000000000000000e+00 0.0000000000000000e+00
6.5100916828862516e+00 0.0000000000000000e+00 0.0000000000000000e+00
6.5101685251346320e+00 0.0000000000000000e+00 0.0000000000000000e+00
6.5102475041874088e+00 0.0000000000000000e+00 0.0000000000000000e+00
6.5103286210998581e+00 0.0000000000000000e+00 0.0000000000000000e+00
6.5104118770850024e+00 0.0000000000000000e+00 0.0000000000000000e+00
6.5104972731808886e+00 0.0000000000000000e+00 0.0000000000000000e+00
6.5105848102519586e+00 0.0000000000000000e+00 0.0000000000000000e+00
6.5106744891353738e+00 0.0000000000000000e+00 0.0000000000000000e+00
6.5107663106392959e+00 0.0000000000000000e+00 0.0000000000000000e+00
6.5108602754061753e+00 0.0000000000000000e+00 0.0000000000000000e+00
6.5109563841627214e+00 0.0000000000000000e+00 0.0000000000000000e+00
6.5110546375021272e+00 0.0000000000000000e+00 0.0000000000000000e+00
6.5111550362863966e+00 0.0000000000000000e+00 0.0000000000000000e+00
6.5112575811765883e+00 0.0000000000000000e+00 0.0000000000000000e+00
6.5113622729268021e+00 0.0000000000000000e+00 0.0000000000000000e+00
6.5114691117956331e+00 0.0000000000000000e+00 0.0000000000000000e+00
6.5115780972170763e+00 0.0000000000000000e+00 0.0000000000000000e+00
6.5116892309825003e+00 0.0000000000000000e+00 0.0000000000000000e+00
6.5118025137493962e+00 0.0000000000000000e+00 0.0000000000000000e+00
6.5119179457332548e+00 0.0000000000000000e+00 0.0000000000000000e+00
6.5120355259283089e+00 0.0000000000000000e+00 0.0000000000000000e+00
6.5121552554081097e+00 0.0000000000000000e+00 0.0000000000000000e+00
6.5122771362002574e+00 0.0000000000000000e+00 0.0000000000000000e+00
6.5124011707907359e+00 0.0000000000000000e+00 0.0000000000000000e+00
6.5125273553612510e+00 0.0000000000000000e+00 0.0000000000000000e+00
6.5126556866132539e+00 0.0000000000000000e+00 0.0000000000000000e+00
6.5127861668241476e+00 0.0000000000000000e+00 0.0000000000000000e+00
6.5129187994625921e+00 0.0000000000000000e+00 0.0000000000000000e+00
6.5130535867180379e+00 0.0000000000000000e+00 0.0000000000000000e+00
6.5131905236720993e+00 0.0000000000000000e+00 0.0000000000000000e+00
6.5133296139777954e+00 0.0000000000000000e+00 0.0000000000000000e+00
6.5134708486042694e+00 0.0000000000000000e+00 0.0000000000000000e+00
6.5136142485463120e+00 0.0000000000000000e+00 0.0000000000000000e+00
6.5137597576238067e+00 0.0000000000000000e+00 0.0000000000000000e+00
6.5139075274017433e+00 0.0000000000000000e+00 0.0000000000000000e+00
6.5140571472048903e+00 0.0000000000000000e+00 0.0000000000000000e+00
6.5142097126251146e+00 0.0000000000000000e+00 0.0000000000000000e+00
6.5143622780453390e+00 0.0000000000000000e+00 0.0000000000000000e+00


SCALARS pressure float
LOOKUP_TABLE default
2.7200403562688294e+01
2.6927081715466599e+01
2.6653759868244908e+01
2.6380492146132354e+01
2.6107305991343054e+01
2.5834208435248044e+01
2.5561178066186645e+01
2.5288189998906166e+01
2.5015239640269495e+01
2.4742343200165646e+01
2.4469514356774212e+01
2.4196749459664311e+01
2.3924043809579040e+01
2.3651388377895145e+01
2.3378762176498508e+01
2.3106156901161999e+01
2.2833580197424148e+01
2.2561054274600700e+01
2.2288587737302759e+01
2.2016163351130949e+01
2.1743770218592903e+01
2.1471411720058100e+01
2.1199095123098950e+01
2.0926818164515538e+01
2.0654571457464794e+01
2.0382323376146314e+01
2.0110088124807675e+01
1.9837900675732925e+01
1.9565754820501233e+01
1.9293644413055627e+01
1.9021571315468474e+01
1.8749537501846802e+01
1.8477539616178674e+01
1.8205570068659274e+01
1.7933617635305687e+01
1.7661681194587192e+01
1.7389763115105250e+01
1.7117864220522794e+01
1.6845985193512959e+01
1.6574124560515582e+01
1.6302286094339905e+01
1.6030474418180376e+01
1.5758686282871624e+01
1.5486919417877619e+01
1.5215172140643716e+01
1.4943443112065255e+01
1.4671731188553094e+01
1.4400035350453884e+01
1.4128354667916526e+01
1.3856688246416947e+01
1.3585035208237381e+01
1.3313394688623406e+01
1.3041765825002470e+01
1.2770147763135213e+01
1.2498539651780433e+01
1.2226940633720060e+01
1.1955349850086193e+01
1.1683766440382071e+01
1.1412189538216957e+01
1.1140618274622263e+01
1.0869051780216852e+01
1.0597489183636844e+01
1.0325929608166506e+01
1.0054372174507499e+01
9.7828160011629599e+00
9.5112602027241824e+00
9.2397038911949991e+00
8.9681461761428114e+00
8.6965861636744677e+00
8.4250229577024989e+00
8.1534556604002155e+00
7.8818833717376489e+00
7.6103051894593197e+00
7.3387202097663051e+00
7.0671275262893536e+00
6.7955262309478819e+00
6.5239154121754375e+00
6.2522941567193229e+00
5.9806615488358181e+00
5.7090166730592484e+00
5.4373586168076020e+00
5.1656864558393005e+00
4.8939992663304572e+00
4.6222961253135786e+00
4.3505761146636734e+00
4.0788383067745020e+00
3.8070817660081877e+00
3.5353055504804534e+00
3.2635087446947946e+00
2.9916904385127805e+00
2.7198496966026333e+00
2.4479855694055894e+00
2.1760971082792482e+00
1.9041833968432822e+00
1.6322434876706269e+00
1.3602764839250001e+00
1.0882813599038634e+00
8.1625742006515911e-01
5.4420307307678262e-01
2.7211914759261324e-01
0.0000000000000000e+00


SCALARS diameter float
LOOKUP_TABLE default
1.0024684014816585e+00
1.0024381103068456e+00
1.0024104226219530e+00
1.0023845838162806e+00
1.0023604144516800e+00
1.0023363084491439e+00
1.0023112027203351e+00
1.0022854262779117e+00
1.0022602675240682e+00
1.0022363447031599e+00
1.0022128231798890e+00
1.0021893605810368e+00
1.0021658817616919e+00
1.0021413820446514e+00
1.0021156545130492e+00
1.0020898398886582e+00
1.0020645910542660e+00
1.0020407906419706e+00
1.0020166571378255e+00
1.0019919706661964e+00
1.0019671553927636e+00
1.0019428475136865e+00
1.0019186743588298e+00
1.0018942325739371e+00
1.0018684853050124e+00
1.0018414014889392e+00
1.0018167974579701e+00
1.0017922216685606e+00
1.0017676409807119e+00
1.0017431044219114e+00
1.0017191183604977e+00
1.0016951162132584e+00
1.0016711134465417e+00
1.0016464282558268e+00
1.0016214430483197e+00
1.0015964564055826e+00
1.0015714666958224e+00
1.0015464730297001e+00
1.0015214758162649e+00
1.0014965063145085e+00
1.0014720448987318e+00
1.0014475782519998e+00
1.0014231068271158e+00
1.0013986313662657e+00
1.0013741520043378e+00
1.0013496684242358e+00
1.0013251803277297e+00
1.0013006887526983e+00
1.0012761941180390e+00
1.0012516958313926e+00
1.0012271942519146e+00
1.0012026890902130e+00
1.0011781806144933e+00
1.0011536692620184e+00
1.0011291550008568e+00
1.0011046377994326e+00
1.0010801179595818e+00
1.0010555953789078e+00
1.0010310701406084e+00
1.0010065424008225e+00
1.0009820124356561e+00
1.0009574802455927e+00
1.0009329458742504e+00
1.0009084094747140e+00
1.0008838711170962e+00
1.0008593308547729e+00
1.0008347888375164e+00
1.0008102450963325e+00
1.0007856997271407e+00
1.0007611528537161e+00
1.0007366046062542e+00
1.0007120550756397e+00
1.0006875044006989e+00
1.0006629526851858e+00
1.0006384000230575e+00
1.0006138465183840e+00
1.0005892921600159e+00
1.0005647371651489e+00
1.0005401814956072e+00
1.0005156257127770e+00
1.0004910695380802e+00
1.0004665127756209e+00
1.0004419559085695e+00
1.0004173989770691e+00
1.0003928425024422e+00
1.0003682853950351e+00
1.0003437280529650e+00
1.0003191703021748e+00
1.0002946149815095e+00
1.0002700597384739e+00
1.0002455052461465e+00
1.0002209495737007e+00
1.0001963953804895e+00
1.0001718417964063e+00
1.0001472893684344e+00
1.0001227381002276e+00
1.0000981878607691e+00
1.0000736387817677e+00
1.0000490913531939e+00
1.0000245461632820e+00
1.0000000027185498e+00


SCALARS iters float
LOOKUP_TABLE default
3.0000000000000000e+00
3.0000000000000000e+00
3.0000000000000000e+00
3.0000000000000000e+00
3.0000000000000000e+00
3.0000000000000000e+00
3.0000000000000000e+00
3.0000000000000000e+00
3.0000000000000000e+00
3.0000000000000000e+00
3.0000000000000000e+00
3.0000000000000000e+00
3.0000000000000000e+00
3.0000000000000000e+00
3.0000000000000000e+00
3.0000000000000000e+00
3.0000000000000000e+00
3.0000000000000000e+00
3.0000000000000000e+00
3.0000000000000000e+00
3.0000000000000000e+00
3.0000000000000000e+00
3.0000000000000000e+00
3.0000000000000000e+00
3.0000000000000000e+00
3.0000000000000000e+00
3.0000000000000000e+00
3.0000000000000000e+00
3.0000000000000000e+00
3.0000000000000000e+00
3.0000000000000000e+00
3.0000000000000000e+00
3.0000000000000000e+00
3.0000000000000000e+00
3.0000000000000000e+00
3.0000000000000000e+00
3.0000000000000000e+00
3.0000000000000000e+00
3.0000000000000000e+00
3.0000000000000000e+00
3.0000000000000000e+00
3.0000000000000000e+00
3.0000000000000000e+00
3.0000000000000000e+00
3.0000000000000000e+00
3.0000000000000000e+00
3.0000000000000000e+00
3.0000000000000000e+00
3.0000000000000000e+00
3.0000000000000000e+00
3.0000000000000000e+00
3.0000000000000000e+00
3.0000000000000000e+00
3.0000000000000000e+00
3.0000000000000000e+00
3.0000000000000000e+00
3.0000000000000000e+00
3.0000000000000000e+00
3.0000000000000000e+00
3.0000000000000000e+00
3.0000000000000000e+00
3.0000000000000000e+00
3.0000000000000000e+00
3.0000000000000000e+00
3.0000000000000000e+00
3.0000000000000000e+00
3.0000000000000000e+00
3.0000000000000000e+00
3.0000000000000000e+00
3.0000000000000000e+00
3.0000000000000000e+00
3.0000000000000000e+00
3.0000000000000000e+00
3.0000000000000000e+00
3.0000000000000000e+00
3.0000000000000000e+00
3.0000000000000000e+00
3.0000000000000000e+00
3.0000000000000000e+00
3.0000000000000000e+00
3.0000000000000000e+00
3.0000000000000000e+00
3.0000000000000000e+00
3.0000000000000000e+00
3.0000000000000000e+00
3.0000000000000000e+00
3.0000000000000000e+00
3.0000000000000000e+00
3.0000000000000000e+00
3.0000000000000000e+00
3.0000000000000000e+00
3.0000000000000000e+00
3.0000000000000000e+00
3.0000000000000000e+00
3.0000000000000000e+00
3.0000000000000000e+00
3.0000000000000000e+00
3.0000000000000000e+00
3.0000000000000000e+00
3.0000000000000000e+00
3.0000000000000000e+00


