# vtk DataFile Version 2.0

ASCII

DATASET UNSTRUCTURED_GRID

POINTS 101 float

0.0000000000000000e+00 0.0000000000000000e+00 0.0000000000000000e+00
1.0000000000000001e-01 0.0000000000000000e+00 0.0000000000000000e+00
2.0000000000000001e-01 0.0000000000000000e+00 0.0000000000000000e+00
3.0000000000000004e-01 0.0000000000000000e+00 0.0000000000000000e+00
4.0000000000000002e-01 0.0000000000000000e+00 0.0000000000000000e+00
5.0000000000000000e-01 0.0000000000000000e+00 0.0000000000000000e+00
6.0000000000000009e-01 0.0000000000000000e+00 0.0000000000000000e+00
7.0000000000000007e-01 0.0000000000000000e+00 0.0000000000000000e+00
8.0000000000000004e-01 0.0000000000000000e+00 0.0000000000000000e+00
9.0000000000000002e-01 0.0000000000000000e+00 0.0000000000000000e+00
1.0000000000000000e+00 0.0000000000000000e+00 0.0000000000000000e+00
1.1000000000000001e+00 0.0000000000000000e+00 0.0000000000000000e+00
1.2000000000000002e+00 0.0000000000000000e+00 0.0000000000000000e+00
1.3000000000000000e+00 0.0000000000000000e+00 0.0000000000000000e+00
1.4000000000000001e+00 0.0000000000000000e+00 0.0000000000000000e+00
1.5000000000000000e+00 0.0000000000000000e+00 0.0000000000000000e+00
1.6000000000000001e+00 0.0000000000000000e+00 0.0000000000000000e+00
1.7000000000000002e+00 0.0000000000000000e+00 0.0000000000000000e+00
1.8000000000000000e+00 0.0000000000000000e+00 0.0000000000000000e+00
1.9000000000000001e+00 0.0000000000000000e+00 0.0000000000000000e+00
2.0000000000000000e+00 0.0000000000000000e+00 0.0000000000000000e+00
2.1000000000000001e+00 0.0000000000000000e+00 0.0000000000000000e+00
2.2000000000000002e+00 0.0000000000000000e+00 0.0000000000000000e+00
2.3000000000000003e+00 0.0000000000000000e+00 0.0000000000000000e+00
2.4000000000000004e+00 0.0000000000000000e+00 0.0000000000000000e+00
2.5000000000000000e+00 0.0000000000000000e+00 0.0000000000000000e+00
2.6000000000000001e+00 0.0000000000000000e+00 0.0000000000000000e+00
2.7000000000000002e+00 0.0000000000000000e+00 0.0000000000000000e+00
2.8000000000000003e+00 0.0000000000000000e+00 0.0000000000000000e+00
2.9000000000000004e+00 0.0000000000000000e+00 0.0000000000000000e+00
3.0000000000000000e+00 0.0000000000000000e+00 0.0000000000000000e+00
3.1000000000000001e+00 0.0000000000000000e+00 0.0000000000000000e+00
3.2000000000000002e+00 0.0000000000000000e+00 0.0000000000000000e+00
3.3000000000000003e+00 0.0000000000000000e+00 0.0000000000000000e+00
3.4000000000000004e+00 0.0000000000000000e+00 0.0000000000000000e+00
3.5000000000000000e+00 0.0000000000000000e+00 0.0000000000000000e+00
3.6000000000000001e+00 0.0000000000000000e+00 0.0000000000000000e+00
3.7000000000000002e+00 0.0000000000000000e+00 0.0000000000000000e+00
3.8000000000000003e+00 0.0000000000000000e+00 0.0000000000000000e+00
3.9000000000000004e+00 0.0000000000000000e+00 0.0000000000000000e+00
4.0000000000000000e+00 0.0000000000000000e+00 0.0000000000000000e+00
4.1000000000000005e+00 0.0000000000000000e+00 0.0000000000000000e+00
4.2000000000000002e+00 0.0000000000000000e+00 0.0000000000000000e+00
4.2999999999999998e+00 0.0000000000000000e+00 0.0000000000000000e+00
4.4000000000000004e+00 0.0000000000000000e+00 0.0000000000000000e+00
4.5000000000000000e+00 0.0000000000000000e+00 0.0000000000000000e+00
4.6000000000000005e+00 0.0000000000000000e+00 0.0000000000000000e+00
4.7000000000000002e+00 0.0000000000000000e+00 0.0000000000000000e+00
4.8000000000000007e+00 0.0000000000000000e+00 0.0000000000000000e+00
4.9000000000000004e+00 0.0000000000000000e+00 0.0000000000000000e+00
5.0000000000000000e+00 0.0000000000000000e+00 0.0000000000000000e+00
5.1000000000000005e+00 0.0000000000000000e+00 0.0000000000000000e+00
5.2000000000000002e+00 0.0000000000000000e+00 0.0000000000000000e+00
5.3000000000000007e+00 0.0000000000000000e+00 0.0000000000000000e+00
5.4000000000000004e+00 0.0000000000000000e+00 0.0000000000000000e+00
5.5000000000000000e+00 0.0000000000000000e+00 0.0000000000000000e+00
5.6000000000000005e+00 0.0000000000000000e+00 0.0000000000000000e+00
5.7000000000000002e+00 0.0000000000000000e+00 0.0000000000000000e+00
5.8000000000000007e+00 0.0000000000000000e+00 0.0000000000000000e+00
5.9000000000000004e+00 0.0000000000000000e+00 0.0000000000000000e+00
6.0000000000000000e+00 0.0000000000000000e+00 0.0000000000000000e+00
6.1000000000000005e+00 0.0000000000000000e+00 0.0000000000000000e+00
6.2000000000000002e+00 0.0000000000000000e+00 0.0000000000000000e+00
6.3000000000000007e+00 0.0000000000000000e+00 0.0000000000000000e+00
6.4000000000000004e+00 0.0000000000000000e+00 0.0000000000000000e+00
6.5000000000000000e+00 0.0000000000000000e+00 0.0000000000000000e+00
6.6000000000000005e+00 0.0000000000000000e+00 0.0000000000000000e+00
6.7000000000000002e+00 0.0000000000000000e+00 0.0000000000000000e+00
6.8000000000000007e+00 0.0000000000000000e+00 0.0000000000000000e+00
6.9000000000000004e+00 0.0000000000000000e+00 0.0000000000000000e+00
7.0000000000000000e+00 0.0000000000000000e+00 0.0000000000000000e+00
7.1000000000000005e+00 0.0000000000000000e+00 0.0000000000000000e+00
7.2000000000000002e+00 0.0000000000000000e+00 0.0000000000000000e+00
7.3000000000000007e+00 0.0000000000000000e+00 0.0000000000000000e+00
7.4000000000000004e+00 0.0000000000000000e+00 0.0000000000000000e+00
7.5000000000000000e+00 0.0000000000000000e+00 0.0000000000000000e+00
7.6000000000000005e+00 0.0000000000000000e+00 0.0000000000000000e+00
7.7000000000000002e+00 0.0000000000000000e+00 0.0000000000000000e+00
7.8000000000000007e+00 0.0000000000000000e+00 0.0000000000000000e+00
7.9000000000000004e+00 0.0000000000000000e+00 0.0000000000000000e+00
8.0000000000000000e+00 0.0000000000000000e+00 0.0000000000000000e+00
8.0999999999999996e+00 0.0000000000000000e+00 0.0000000000000000e+00
8.2000000000000011e+00 0.0000000000000000e+00 0.0000000000000000e+00
8.3000000000000007e+00 0.0000000000000000e+00 0.0000000000000000e+00
8.4000000000000004e+00 0.0000000000000000e+00 0.0000000000000000e+00
8.5000000000000000e+00 0.0000000000000000e+00 0.0000000000000000e+00
8.5999999999999996e+00 0.0000000000000000e+00 0.0000000000000000e+00
8.7000000000000011e+00 0.0000000000000000e+00 0.0000000000000000e+00
8.8000000000000007e+00 0.0000000000000000e+00 0.0000000000000000e+00
8.9000000000000004e+00 0.0000000000000000e+00 0.0000000000000000e+00
9.0000000000000000e+00 0.0000000000000000e+00 0.0000000000000000e+00
9.0999999999999996e+00 0.0000000000000000e+00 0.0000000000000000e+00
9.2000000000000011e+00 0.0000000000000000e+00 0.0000000000000000e+00
9.3000000000000007e+00 0.0000000000000000e+00 0.0000000000000000e+00
9.4000000000000004e+00 0.0000000000000000e+00 0.0000000000000000e+00
9.5000000000000000e+00 0.0000000000000000e+00 0.0000000000000000e+00
9.6000000000000014e+00 0.0000000000000000e+00 0.0000000000000000e+00
9.7000000000000011e+00 0.0000000000000000e+00 0.0000000000000000e+00
9.8000000000000007e+00 0.0000000000000000e+00 0.0000000000000000e+00
9.9000000000000004e+00 0.0000000000000000e+00 0.0000000000000000e+00
1.0000000000000000e+01 0.0000000000000000e+00 0.0000000000000000e+00

POINT_DATA 101

VECTORS velocity float
6.6601237391863854e+00 0.0000000000000000e+00 0.0000000000000000e+00
6.6600486832770409e+00 0.0000000000000000e+00 0.0000000000000000e+00
6.6600305976980980e+00 0.0000000000000000e+00 0.0000000000000000e+00
6.6600511639669469e+00 0.0000000000000000e+00 0.0000000000000000e+00
6.6600919413043194e+00 0.0000000000000000e+00 0.0000000000000000e+00
6.6601479970049500e+00 0.0000000000000000e+00 0.0000000000000000e+00
6.6602207076591773e+00 0.0000000000000000e+00 0.0000000000000000e+00
6.6602983336568178e+00 0.0000000000000000e+00 0.0000000000000000e+00
6.6603716627272993e+00 0.0000000000000000e+00 0.0000000000000000e+00
6.6604383275221757e+00 0.0000000000000000e+00 0.0000000000000000e+00
6.6604992520342465e+00 0.0000000000000000e+00 0.0000000000000000e+00
6.6605553053184394e+00 0.0000000000000000e+00 0.0000000000000000e+00
6.6606085814493428e+00 0.0000000000000000e+00 0.0000000000000000e+00
6.6606638416855741e+00 0.0000000000000000e+00 0.0000000000000000e+00
6.6607212592342773e+00 0.0000000000000000e+00 0.0000000000000000e+00
6.6607763371561370e+00 0.0000000000000000e+00 0.0000000000000000e+00
6.6608264611998784e+00 0.0000000000000000e+00 0.0000000000000000e+00
6.6608737270279477e+00 0.0000000000000000e+00 0.0000000000000000e+00
6.6609199822884086e+00 0.0000000000000000e+00 0.0000000000000000e+00
6.6609647825950491e+00 0.0000000000000000e+00 0.0000000000000000e+00
6.6610058318526830e+00 0.0000000000000000e+00 0.0000000000000000e+00
6.6610404035798707e+00 0.0000000000000000e+00 0.0000000000000000e+00
6.6610667669493893e+00 0.0000000000000000e+00 0.0000000000000000e+00
6.6610867263743661e+00 0.0000000000000000e+00 0.0000000000000000e+00
6.6611183342897435e+00 0.0000000000000000e+00 0.0000000000000000e+00
6.6611541646440715e+00 0.0000000000000000e+00 0.0000000000000000e+00
6.6611796042594511e+00 0.0000000000000000e+00 0.0000000000000000e+00
6.6612006149172069e+00 0.0000000000000000e+00 0.0000000000000000e+00
6.6612181864059909e+00 0.0000000000000000e+00 0.0000000000000000e+00
6.6612314023937520e+00 0.0000000000000000e+00 0.0000000000000000e+00
6.6612399411561718e+00 0.0000000000000000e+00 0.0000000000000000e+00
6.6612445800671320e+00 0.0000000000000000e+00 0.0000000000000000e+00
6.6612465303946422e+00 0.0000000000000000e+00 0.0000000000000000e+00
6.6612473749404559e+00 0.0000000000000000e+00 0.0000000000000000e+00
6.6612465443325606e+00 0.0000000000000000e+00 0.0000000000000000e+00
6.6612434817833224e+00 0.0000000000000000e+00 0.0000000000000000e+00
6.6612380281713071e+00 0.0000000000000000e+00 0.0000000000000000e+00
6.6612300733625887e+00 0.0000000000000000e+00 0.0000000000000000e+00
6.6612196228870788e+00 0.0000000000000000e+00 0.0000000000000000e+00
6.6612063622463005e+00 0.0000000000000000e+00 0.0000000000000000e+00
6.6611897671785076e+00 0.0000000000000000e+00 0.0000000000000000e+00
6.6611701342730765e+00 0.0000000000000000e+00 0.0000000000000000e+00
6.6611474722182580e+00 0.0000000000000000e+00 0.0000000000000000e+00
6.6611217872978212e+00 0.0000000000000000e+00 0.0000000000000000e+00
6.6610930833380602e+00 0.0000000000000000e+00 0.0000000000000000e+00
6.6610613669845833e+00 0.0000000000000000e+00 0.0000000000000000e+00
6.6610266445322157e+00 0.0000000000000000e+00 0.0000000000000000e+00
6.6609889209492081e+00 0.0000000000000000e+00 0.0000000000000000e+00
6.6609482036773846e+00 0.0000000000000000e+00 0.0000000000000000e+00
6.6609045020445468e+00 0.0000000000000000e+00 0.0000000000000000e+00
6.6608578268905854e+00 0.0000000000000000e+00 0.0000000000000000e+00
6.6608081881541930e+00 0.0000000000000000e+00 0.0000000000000000e+00
6.6607555966673546e+00 0.0000000000000000e+00 0.0000000000000000e+00
6.6607000637260834e+00 0.0000000000000000e+00 0.0000000000000000e+00
6.6606416004147437e+00 0.0000000000000000e+00 0.0000000000000000e+00
6.6605802165423089e+00 0.0000000000000000e+00 0.0000000000000000e+00
6.6605159223678090e+00 0.0000000000000000e+00 0.0000000000000000e+00
6.6604487298895547e+00 0.0000000000000000e+00 0.0000000000000000e+00
6.6603786502390987e+00 0.0000000000000000e+00 0.0000000000000000e+00
6.6603056939505194e+00 0.0000000000000000e+00 0.0000000000000000e+00
6.6602298718586948e+00 0.0000000000000000e+00 0.0000000000000000e+00
6.6601511944695311e+00 0.0000000000000000e+00 0.0000000000000000e+00
6.6600696717796763e+00 0.0000000000000000e+00 0.0000000000000000e+00
6.6599853140195302e+00 0.0000000000000000e+00 0.0000000000000000e+00
6.6598981314357673e+00 0.0000000000000000e+00 0.0000000000000000e+00
6.6598081340916142e+00 0.0000000000000000e+00 0.0000000000000000e+00
6.6597153319038345e+00 0.0000000000000000e+00 0.0000000000000000e+00
6.6596197349095725e+00 0.0000000000000000e+00 0.0000000000000000e+00
6.6595213529868964e+00 0.0000000000000000e+00 0.0000000000000000e+00
6.6594201958323564e+00 0.0000000000000000e+00 0.0000000000000000e+00
6.6593162727676054e+00 0.0000000000000000e+00 0.0000000000000000e+00
6.6592095929477164e+00 0.0000000000000000e+00 0.0000000000000000e+00
6.6591001651276018e+00 0.0000000000000000e+00 0.0000000000000000e+00
6.6589879986685947e+00 0.0000000000000000e+00 0.0000000000000000e+00
6.6588731027054715e+00 0.0000000000000000e+00 0.0000000000000000e+00
6.6587554860898139e+00 0.0000000000000000e+00 0.0000000000000000e+00
6.6586351586278285e+00 0.0000000000000000e+00 0.0000000000000000e+00
6.6585121282009361e+00 0.0000000000000000e+00 0.0000000000000000e+00
6.6583864042412824e+00 0.0000000000000000e+00 0.0000000000000000e+00
6.6582579944222138e+00 0.0000000000000000e+00 0.0000000000000000e+00
6.6581269068208195e+00 0.0000000000000000e+00 0.0000000000000000e+00
6.6579931500042857e+00 0.0000000000000000e+00 0.0000000000000000e+00
6.6578567321140163e+00 0.0000000000000000e+00 0.0000000000000000e+00
6.6577176625253651e+00 0.0000000000000000e+00 0.0000000000000000e+00
6.6575759474887679e+00 0.0000000000000000e+00 0.0000000000000000e+00
6.6574315941736977e+00 0.0000000000000000e+00 0.0000000000000000e+00
6.6572846118554549e+00 0.0000000000000000e+00 0.0000000000000000e+00
6.6571350042913391e+00 0.0000000000000000e+00 0.0000000000000000e+00
6.6569827785402902e+00 0.0000000000000000e+00 0.0000000000000000e+00
6.6568279453558477e+00 0.0000000000000000e+00 0.0000000000000000e+00
6.6566705167617224e+00 0.0000000000000000e+00 0.0000000000000000e+00
6.6565104944251159e+00 0.0000000000000000e+00 0.0000000000000000e+00
6.6563478854336093e+00 0.0000000000000000e+00 0.0000000000000000e+00
6.6561826917082998e+00 0.0000000000000000e+00 0.0000000000000000e+00
6.6560149408592988e+00 0.0000000000000000e+00 0.0000000000000000e+00
6.6558445859000335e+00 0.0000000000000000e+00 0.0000000000000000e+00
6.6556717622804680e+00 0.0000000000000000e+00 0.0000000000000000e+00
6.6554961707460008e+00 0.0000000000000000e+00 0.0000000000000000e+00
6.6553185336240226e+00 0.0000000000000000e+00 0.0000000000000000e+00
6.6551372067799779e+00 0.0000000000000000e+00 0.0000000000000000e+00
6.6549558799359332e+00 0.0000000000000000e+00 0.0000000000000000e+00


SCALARS pressure float
LOOKUP_TABLE default
-3.0196985404826549e+01
-2.9918448158378165e+01
-2.9639910911929778e+01
-2.9361152539369794e+01
-2.9082024918689722e+01
-2.8802402578505383e+01
-2.8522227767635854e+01
-2.8241491615799422e+01
-2.7960142694187663e+01
-2.7678127602469477e+01
-2.7395421951434429e+01
-2.7112026008395315e+01
-2.6827947978910181e+01
-2.6543203311559576e+01
-2.6257821751301982e+01
-2.5971817452303195e+01
-2.5685178702438112e+01
-2.5397896141915957e+01
-2.5109982396823334e+01
-2.4821453297686027e+01
-2.4532314564730392e+01
-2.4242561308912407e+01
-2.3952184616589960e+01
-2.3661179884941379e+01
-2.3369560137083116e+01
-2.3077414346082350e+01
-2.2784738300760925e+01
-2.2491468961231522e+01
-2.2197618863185387e+01
-2.1903201098148585e+01
-2.1608220344656949e+01
-2.1312681527918489e+01
-2.1016594664252086e+01
-2.0719973360775647e+01
-2.0422834009258036e+01
-2.0125183890078141e+01
-1.9827027454693457e+01
-1.9528370115121529e+01
-1.9229217721089356e+01
-1.8929576997695158e+01
-1.8629452815684814e+01
-1.8328848154107977e+01
-1.8027769737873655e+01
-1.7726224269352937e+01
-1.7424218524506333e+01
-1.7121759352803046e+01
-1.6818853683258766e+01
-1.6515508499175116e+01
-1.6211730818505863e+01
-1.5907527700896328e+01
-1.5602906244347574e+01
-1.5297873580239424e+01
-1.4992436859353479e+01
-1.4686603255086293e+01
-1.4380379961594072e+01
-1.4073774189779657e+01
-1.3766793161006305e+01
-1.3459444112592697e+01
-1.3151734304967571e+01
-1.2843671011974630e+01
-1.2535261518863159e+01
-1.2226513125483438e+01
-1.1917433143891778e+01
-1.1608028896869721e+01
-1.1298307720769944e+01
-1.0988276965091158e+01
-1.0677943991237786e+01
-1.0367316172055530e+01
-1.0056400892728448e+01
-9.7452055495607510e+00
-9.4337375492340190e+00
-9.1220043075224382e+00
-8.8100132495877066e+00
-8.4977718088848189e+00
-8.1852874313370041e+00
-7.8725675724507749e+00
-7.5596196962407287e+00
-7.2464512800455374e+00
-6.9330698028763118e+00
-6.6194827569809558e+00
-6.3056976367034228e+00
-5.9917219445893863e+00
-5.6775631932817374e+00
-5.3632289018538115e+00
-5.0487266023500794e+00
-4.7340638215966049e+00
-4.4192480923231505e+00
-4.1042869637317212e+00
-3.7891879692833368e+00
-3.4739586572917101e+00
-3.1586066015793715e+00
-2.8431393922408250e+00
-2.5275645806856111e+00
-2.2118897326093609e+00
-1.8961224046018592e+00
-1.5802702523866290e+00
-1.2643406722269197e+00
-9.4834168528467311e-01
-6.3227987815183084e-01
-3.1616509724697334e-01
0.0000000000000000e+00


SCALARS diameter float
LOOKUP_TABLE default
9.9727257764340549e-01
9.9730379090842691e-01
9.9733216222014265e-01
9.9735812677718250e-01
9.9738352804329511e-01
9.9740912186473851e-01
9.9743179877902222e-01
9.9745394843287405e-01
9.9747822272061348e-01
9.9750407942440356e-01
9.9753083909494145e-01
9.9755781502557028e-01
9.9758492823002942e-01
9.9761089843346440e-01
9.9763550258981348e-01
9.9766028844663324e-01
9.9768594891084583e-01
9.9771190083311734e-01
9.9773742360548423e-01
9.9776275542661652e-01
9.9778827632606071e-01
9.9781477170572697e-01
9.9784239693519428e-01
9.9787094885439365e-01
9.9789701694158350e-01
9.9791898618164565e-01
9.9794526020142615e-01
9.9797166263371007e-01
9.9799810724355209e-01
9.9802464830624082e-01
9.9805178393272398e-01
9.9807896728031142e-01
9.9810623356428751e-01
9.9813298059124711e-01
9.9815954143938057e-01
9.9818614642340897e-01
9.9821279723286616e-01
9.9823949482014662e-01
9.9826623861860719e-01
9.9829304149911013e-01
9.9832009067743255e-01
9.9834718023130875e-01
9.9837431317116321e-01
9.9840148867136935e-01
9.9842870620784119e-01
9.9845596483101839e-01
9.9848326335588666e-01
9.9851060214754384e-01
9.9853798056951715e-01
9.9856539800813959e-01
9.9859285340170434e-01
9.9862034622681695e-01
9.9864787593835058e-01
9.9867544165423505e-01
9.9870304280824618e-01
9.9873067885213829e-01
9.9875834959016629e-01
9.9878605387172270e-01
9.9881379097318923e-01
9.9884156036218930e-01
9.9886936140420957e-01
9.9889719339482475e-01
9.9892505585080904e-01
9.9895294810709712e-01
9.9898086950353471e-01
9.9900881936580055e-01
9.9903679709563753e-01
9.9906480199110193e-01
9.9909283337588695e-01
9.9912089060668063e-01
9.9914897307161210e-01
9.9917708021265206e-01
9.9920521144226926e-01
9.9923336615906366e-01
9.9926154350661900e-01
9.9928974302690288e-01
9.9931796376629356e-01
9.9934620517694017e-01
9.9937446679161879e-01
9.9940274756471503e-01
9.9943104761677626e-01
9.9945936552143577e-01
9.9948770119924857e-01
9.9951605325518122e-01
9.9954442155810141e-01
9.9957280584784003e-01
9.9960120486062487e-01
9.9962961833676223e-01
9.9965804684636894e-01
9.9968648772137392e-01
9.9971494021113438e-01
9.9974340334907730e-01
9.9977187929519495e-01
9.9980036491113244e-01
9.9982886023496620e-01
9.9985736472921671e-01
9.9988587753934799e-01
9.9991439806596372e-01
9.9994292563102849e-01
9.9997146012682347e-01
1.0000000034745933e+00


SCALARS iters float
LOOKUP_TABLE default
4.0000000000000000e+00
4.0000000000000000e+00
4.0000000000000000e+00
4.0000000000000000e+00
4.0000000000000000e+00
4.0000000000000000e+00
4.0000000000000000e+00
4.0000000000000000e+00
4.0000000000000000e+00
4.0000000000000000e+00
4.0000000000000000e+00
4.0000000000000000e+00
4.0000000000000000e+00
4.0000000000000000e+00
4.0000000000000000e+00
4.0000000000000000e+00
4.0000000000000000e+00
4.0000000000000000e+00
4.0000000000000000e+00
4.0000000000000000e+00
4.0000000000000000e+00
4.0000000000000000e+00
4.0000000000000000e+00
4.0000000000000000e+00
4.0000000000000000e+00
4.0000000000000000e+00
4.0000000000000000e+00
4.0000000000000000e+00
4.0000000000000000e+00
4.0000000000000000e+00
4.0000000000000000e+00
4.0000000000000000e+00
4.0000000000000000e+00
4.0000000000000000e+00
4.0000000000000000e+00
4.0000000000000000e+00
4.0000000000000000e+00
4.0000000000000000e+00
4.0000000000000000e+00
4.0000000000000000e+00
4.0000000000000000e+00
4.0000000000000000e+00
4.0000000000000000e+00
4.0000000000000000e+00
4.0000000000000000e+00
4.0000000000000000e+00
4.0000000000000000e+00
4.0000000000000000e+00
4.0000000000000000e+00
4.0000000000000000e+00
4.0000000000000000e+00
4.0000000000000000e+00
4.0000000000000000e+00
4.0000000000000000e+00
4.0000000000000000e+00
4.0000000000000000e+00
4.0000000000000000e+00
4.0000000000000000e+00
4.0000000000000000e+00
4.0000000000000000e+00
4.0000000000000000e+00
4.0000000000000000e+00
4.0000000000000000e+00
4.0000000000000000e+00
4.0000000000000000e+00
4.0000000000000000e+00
4.0000000000000000e+00
4.0000000000000000e+00
4.0000000000000000e+00
4.0000000000000000e+00
4.0000000000000000e+00
4.0000000000000000e+00
4.0000000000000000e+00
4.0000000000000000e+00
4.0000000000000000e+00
4.0000000000000000e+00
4.0000000000000000e+00
4.0000000000000000e+00
4.0000000000000000e+00
4.0000000000000000e+00
4.0000000000000000e+00
4.0000000000000000e+00
4.0000000000000000e+00
4.0000000000000000e+00
4.0000000000000000e+00
4.0000000000000000e+00
4.0000000000000000e+00
4.0000000000000000e+00
4.0000000000000000e+00
4.0000000000000000e+00
4.0000000000000000e+00
4.0000000000000000e+00
4.0000000000000000e+00
4.0000000000000000e+00
4.0000000000000000e+00
4.0000000000000000e+00
4.0000000000000000e+00
4.0000000000000000e+00
4.0000000000000000e+00
4.0000000000000000e+00
4.0000000000000000e+00


