# vtk DataFile Version 2.0

ASCII

DATASET UNSTRUCTURED_GRID

POINTS 101 float

0.0000000000000000e+00 0.0000000000000000e+00 0.0000000000000000e+00
1.0000000000000001e-01 0.0000000000000000e+00 0.0000000000000000e+00
2.0000000000000001e-01 0.0000000000000000e+00 0.0000000000000000e+00
3.0000000000000004e-01 0.0000000000000000e+00 0.0000000000000000e+00
4.0000000000000002e-01 0.0000000000000000e+00 0.0000000000000000e+00
5.0000000000000000e-01 0.0000000000000000e+00 0.0000000000000000e+00
6.0000000000000009e-01 0.0000000000000000e+00 0.0000000000000000e+00
7.0000000000000007e-01 0.0000000000000000e+00 0.0000000000000000e+00
8.0000000000000004e-01 0.0000000000000000e+00 0.0000000000000000e+00
9.0000000000000002e-01 0.0000000000000000e+00 0.0000000000000000e+00
1.0000000000000000e+00 0.0000000000000000e+00 0.0000000000000000e+00
1.1000000000000001e+00 0.0000000000000000e+00 0.0000000000000000e+00
1.2000000000000002e+00 0.0000000000000000e+00 0.0000000000000000e+00
1.3000000000000000e+00 0.0000000000000000e+00 0.0000000000000000e+00
1.4000000000000001e+00 0.0000000000000000e+00 0.0000000000000000e+00
1.5000000000000000e+00 0.0000000000000000e+00 0.0000000000000000e+00
1.6000000000000001e+00 0.0000000000000000e+00 0.0000000000000000e+00
1.7000000000000002e+00 0.0000000000000000e+00 0.0000000000000000e+00
1.8000000000000000e+00 0.0000000000000000e+00 0.0000000000000000e+00
1.9000000000000001e+00 0.0000000000000000e+00 0.0000000000000000e+00
2.0000000000000000e+00 0.0000000000000000e+00 0.0000000000000000e+00
2.1000000000000001e+00 0.0000000000000000e+00 0.0000000000000000e+00
2.2000000000000002e+00 0.0000000000000000e+00 0.0000000000000000e+00
2.3000000000000003e+00 0.0000000000000000e+00 0.0000000000000000e+00
2.4000000000000004e+00 0.0000000000000000e+00 0.0000000000000000e+00
2.5000000000000000e+00 0.0000000000000000e+00 0.0000000000000000e+00
2.6000000000000001e+00 0.0000000000000000e+00 0.0000000000000000e+00
2.7000000000000002e+00 0.0000000000000000e+00 0.0000000000000000e+00
2.8000000000000003e+00 0.0000000000000000e+00 0.0000000000000000e+00
2.9000000000000004e+00 0.0000000000000000e+00 0.0000000000000000e+00
3.0000000000000000e+00 0.0000000000000000e+00 0.0000000000000000e+00
3.1000000000000001e+00 0.0000000000000000e+00 0.0000000000000000e+00
3.2000000000000002e+00 0.0000000000000000e+00 0.0000000000000000e+00
3.3000000000000003e+00 0.0000000000000000e+00 0.0000000000000000e+00
3.4000000000000004e+00 0.0000000000000000e+00 0.0000000000000000e+00
3.5000000000000000e+00 0.0000000000000000e+00 0.0000000000000000e+00
3.6000000000000001e+00 0.0000000000000000e+00 0.0000000000000000e+00
3.7000000000000002e+00 0.0000000000000000e+00 0.0000000000000000e+00
3.8000000000000003e+00 0.0000000000000000e+00 0.0000000000000000e+00
3.9000000000000004e+00 0.0000000000000000e+00 0.0000000000000000e+00
4.0000000000000000e+00 0.0000000000000000e+00 0.0000000000000000e+00
4.1000000000000005e+00 0.0000000000000000e+00 0.0000000000000000e+00
4.2000000000000002e+00 0.0000000000000000e+00 0.0000000000000000e+00
4.2999999999999998e+00 0.0000000000000000e+00 0.0000000000000000e+00
4.4000000000000004e+00 0.0000000000000000e+00 0.0000000000000000e+00
4.5000000000000000e+00 0.0000000000000000e+00 0.0000000000000000e+00
4.6000000000000005e+00 0.0000000000000000e+00 0.0000000000000000e+00
4.7000000000000002e+00 0.0000000000000000e+00 0.0000000000000000e+00
4.8000000000000007e+00 0.0000000000000000e+00 0.0000000000000000e+00
4.9000000000000004e+00 0.0000000000000000e+00 0.0000000000000000e+00
5.0000000000000000e+00 0.0000000000000000e+00 0.0000000000000000e+00
5.1000000000000005e+00 0.0000000000000000e+00 0.0000000000000000e+00
5.2000000000000002e+00 0.0000000000000000e+00 0.0000000000000000e+00
5.3000000000000007e+00 0.0000000000000000e+00 0.0000000000000000e+00
5.4000000000000004e+00 0.0000000000000000e+00 0.0000000000000000e+00
5.5000000000000000e+00 0.0000000000000000e+00 0.0000000000000000e+00
5.6000000000000005e+00 0.0000000000000000e+00 0.0000000000000000e+00
5.7000000000000002e+00 0.0000000000000000e+00 0.0000000000000000e+00
5.8000000000000007e+00 0.0000000000000000e+00 0.0000000000000000e+00
5.9000000000000004e+00 0.0000000000000000e+00 0.0000000000000000e+00
6.0000000000000000e+00 0.0000000000000000e+00 0.0000000000000000e+00
6.1000000000000005e+00 0.0000000000000000e+00 0.0000000000000000e+00
6.2000000000000002e+00 0.0000000000000000e+00 0.0000000000000000e+00
6.3000000000000007e+00 0.0000000000000000e+00 0.0000000000000000e+00
6.4000000000000004e+00 0.0000000000000000e+00 0.0000000000000000e+00
6.5000000000000000e+00 0.0000000000000000e+00 0.0000000000000000e+00
6.6000000000000005e+00 0.0000000000000000e+00 0.0000000000000000e+00
6.7000000000000002e+00 0.0000000000000000e+00 0.0000000000000000e+00
6.8000000000000007e+00 0.0000000000000000e+00 0.0000000000000000e+00
6.9000000000000004e+00 0.0000000000000000e+00 0.0000000000000000e+00
7.0000000000000000e+00 0.0000000000000000e+00 0.0000000000000000e+00
7.1000000000000005e+00 0.0000000000000000e+00 0.0000000000000000e+00
7.2000000000000002e+00 0.0000000000000000e+00 0.0000000000000000e+00
7.3000000000000007e+00 0.0000000000000000e+00 0.0000000000000000e+00
7.4000000000000004e+00 0.0000000000000000e+00 0.0000000000000000e+00
7.5000000000000000e+00 0.0000000000000000e+00 0.0000000000000000e+00
7.6000000000000005e+00 0.0000000000000000e+00 0.0000000000000000e+00
7.7000000000000002e+00 0.0000000000000000e+00 0.0000000000000000e+00
7.8000000000000007e+00 0.0000000000000000e+00 0.0000000000000000e+00
7.9000000000000004e+00 0.0000000000000000e+00 0.0000000000000000e+00
8.0000000000000000e+00 0.0000000000000000e+00 0.0000000000000000e+00
8.0999999999999996e+00 0.0000000000000000e+00 0.0000000000000000e+00
8.2000000000000011e+00 0.0000000000000000e+00 0.0000000000000000e+00
8.3000000000000007e+00 0.0000000000000000e+00 0.0000000000000000e+00
8.4000000000000004e+00 0.0000000000000000e+00 0.0000000000000000e+00
8.5000000000000000e+00 0.0000000000000000e+00 0.0000000000000000e+00
8.5999999999999996e+00 0.0000000000000000e+00 0.0000000000000000e+00
8.7000000000000011e+00 0.0000000000000000e+00 0.0000000000000000e+00
8.8000000000000007e+00 0.0000000000000000e+00 0.0000000000000000e+00
8.9000000000000004e+00 0.0000000000000000e+00 0.0000000000000000e+00
9.0000000000000000e+00 0.0000000000000000e+00 0.0000000000000000e+00
9.0999999999999996e+00 0.0000000000000000e+00 0.0000000000000000e+00
9.2000000000000011e+00 0.0000000000000000e+00 0.0000000000000000e+00
9.3000000000000007e+00 0.0000000000000000e+00 0.0000000000000000e+00
9.4000000000000004e+00 0.0000000000000000e+00 0.0000000000000000e+00
9.5000000000000000e+00 0.0000000000000000e+00 0.0000000000000000e+00
9.6000000000000014e+00 0.0000000000000000e+00 0.0000000000000000e+00
9.7000000000000011e+00 0.0000000000000000e+00 0.0000000000000000e+00
9.8000000000000007e+00 0.0000000000000000e+00 0.0000000000000000e+00
9.9000000000000004e+00 0.0000000000000000e+00 0.0000000000000000e+00
1.0000000000000000e+01 0.0000000000000000e+00 0.0000000000000000e+00

POINT_DATA 101

VECTORS velocity float
6.6004991728225857e+00 0.0000000000000000e+00 0.0000000000000000e+00
6.6006711393054429e+00 0.0000000000000000e+00 0.0000000000000000e+00
6.6008442880871430e+00 0.0000000000000000e+00 0.0000000000000000e+00
6.6010137949419860e+00 0.0000000000000000e+00 0.0000000000000000e+00
6.6011780971375025e+00 0.0000000000000000e+00 0.0000000000000000e+00
6.6013420419958528e+00 0.0000000000000000e+00 0.0000000000000000e+00
6.6015108849779960e+00 0.0000000000000000e+00 0.0000000000000000e+00
6.6016812566559944e+00 0.0000000000000000e+00 0.0000000000000000e+00
6.6018497157098519e+00 0.0000000000000000e+00 0.0000000000000000e+00
6.6020171100082390e+00 0.0000000000000000e+00 0.0000000000000000e+00
6.6021835751451876e+00 0.0000000000000000e+00 0.0000000000000000e+00
6.6023490883528613e+00 0.0000000000000000e+00 0.0000000000000000e+00
6.6025158132620767e+00 0.0000000000000000e+00 0.0000000000000000e+00
6.6026869877420555e+00 0.0000000000000000e+00 0.0000000000000000e+00
6.6028613084557133e+00 0.0000000000000000e+00 0.0000000000000000e+00
6.6030368587253054e+00 0.0000000000000000e+00 0.0000000000000000e+00
6.6032061858391087e+00 0.0000000000000000e+00 0.0000000000000000e+00
6.6033667682557002e+00 0.0000000000000000e+00 0.0000000000000000e+00
6.6035273218554895e+00 0.0000000000000000e+00 0.0000000000000000e+00
6.6036909265873760e+00 0.0000000000000000e+00 0.0000000000000000e+00
6.6038551643972436e+00 0.0000000000000000e+00 0.0000000000000000e+00
6.6040178444484132e+00 0.0000000000000000e+00 0.0000000000000000e+00
6.6041790566941181e+00 0.0000000000000000e+00 0.0000000000000000e+00
6.6043395147238240e+00 0.0000000000000000e+00 0.0000000000000000e+00
6.6045076605356909e+00 0.0000000000000000e+00 0.0000000000000000e+00
6.6046788307045992e+00 0.0000000000000000e+00 0.0000000000000000e+00
6.6048445156540625e+00 0.0000000000000000e+00 0.0000000000000000e+00
6.6050086031459472e+00 0.0000000000000000e+00 0.0000000000000000e+00
6.6051719239993547e+00 0.0000000000000000e+00 0.0000000000000000e+00
6.6053336140035501e+00 0.0000000000000000e+00 0.0000000000000000e+00
6.6054932897402479e+00 0.0000000000000000e+00 0.0000000000000000e+00
6.6056517702595059e+00 0.0000000000000000e+00 0.0000000000000000e+00
6.6058103540314459e+00 0.0000000000000000e+00 0.0000000000000000e+00
6.6059704654889506e+00 0.0000000000000000e+00 0.0000000000000000e+00
6.6061314242051097e+00 0.0000000000000000e+00 0.0000000000000000e+00
6.6062926194645266e+00 0.0000000000000000e+00 0.0000000000000000e+00
6.6064538811451365e+00 0.0000000000000000e+00 0.0000000000000000e+00
6.6066150348078443e+00 0.0000000000000000e+00 0.0000000000000000e+00
6.6067761588887475e+00 0.0000000000000000e+00 0.0000000000000000e+00
6.6069367075748824e+00 0.0000000000000000e+00 0.0000000000000000e+00
6.6070962762211982e+00 0.0000000000000000e+00 0.0000000000000000e+00
6.6072553310166091e+00 0.0000000000000000e+00 0.0000000000000000e+00
6.6074139584267888e+00 0.0000000000000000e+00 0.0000000000000000e+00
6.6075722114104289e+00 0.0000000000000000e+00 0.0000000000000000e+00
6.6077301233064460e+00 0.0000000000000000e+00 0.0000000000000000e+00
6.6078877151142166e+00 0.0000000000000000e+00 0.0000000000000000e+00
6.6080450004632105e+00 0.0000000000000000e+00 0.0000000000000000e+00
6.6082019871827544e+00 0.0000000000000000e+00 0.0000000000000000e+00
6.6083586817910556e+00 0.0000000000000000e+00 0.0000000000000000e+00
6.6085150893514522e+00 0.0000000000000000e+00 0.0000000000000000e+00
6.6086712132151177e+00 0.0000000000000000e+00 0.0000000000000000e+00
6.6088270573999246e+00 0.0000000000000000e+00 0.0000000000000000e+00
6.6089826237945202e+00 0.0000000000000000e+00 0.0000000000000000e+00
6.6091379142459115e+00 0.0000000000000000e+00 0.0000000000000000e+00
6.6092929314016207e+00 0.0000000000000000e+00 0.0000000000000000e+00
6.6094476772111408e+00 0.0000000000000000e+00 0.0000000000000000e+00
6.6096021535172564e+00 0.0000000000000000e+00 0.0000000000000000e+00
6.6097563625473867e+00 0.0000000000000000e+00 0.0000000000000000e+00
6.6099103064197884e+00 0.0000000000000000e+00 0.0000000000000000e+00
6.6100639865267992e+00 0.0000000000000000e+00 0.0000000000000000e+00
6.6102174042214310e+00 0.0000000000000000e+00 0.0000000000000000e+00
6.6103705620958051e+00 0.0000000000000000e+00 0.0000000000000000e+00
6.6105234622319839e+00 0.0000000000000000e+00 0.0000000000000000e+00
6.6106761058897900e+00 0.0000000000000000e+00 0.0000000000000000e+00
6.6108284947875502e+00 0.0000000000000000e+00 0.0000000000000000e+00
6.6109806305791903e+00 0.0000000000000000e+00 0.0000000000000000e+00
6.6111325148595110e+00 0.0000000000000000e+00 0.0000000000000000e+00
6.6112841493512180e+00 0.0000000000000000e+00 0.0000000000000000e+00
6.6114355356389769e+00 0.0000000000000000e+00 0.0000000000000000e+00
6.6115866752126378e+00 0.0000000000000000e+00 0.0000000000000000e+00
6.6117375695824707e+00 0.0000000000000000e+00 0.0000000000000000e+00
6.6118882203997700e+00 0.0000000000000000e+00 0.0000000000000000e+00
6.6120386291722903e+00 0.0000000000000000e+00 0.0000000000000000e+00
6.6121887972102362e+00 0.0000000000000000e+00 0.0000000000000000e+00
6.6123387259730171e+00 0.0000000000000000e+00 0.0000000000000000e+00
6.6124884166582367e+00 0.0000000000000000e+00 0.0000000000000000e+00
6.6126378705549484e+00 0.0000000000000000e+00 0.0000000000000000e+00
6.6127870889791200e+00 0.0000000000000000e+00 0.0000000000000000e+00
6.6129360733395801e+00 0.0000000000000000e+00 0.0000000000000000e+00
6.6130848246935159e+00 0.0000000000000000e+00 0.0000000000000000e+00
6.6132333447890730e+00 0.0000000000000000e+00 0.0000000000000000e+00
6.6133816350507137e+00 0.0000000000000000e+00 0.0000000000000000e+00
6.6135296965171761e+00 0.0000000000000000e+00 0.0000000000000000e+00
6.6136775289489824e+00 0.0000000000000000e+00 0.0000000000000000e+00
6.6138251339134602e+00 0.0000000000000000e+00 0.0000000000000000e+00
6.6139725150580642e+00 0.0000000000000000e+00 0.0000000000000000e+00
6.6141196743923230e+00 0.0000000000000000e+00 0.0000000000000000e+00
6.6142666087559290e+00 0.0000000000000000e+00 0.0000000000000000e+00
6.6144133179990519e+00 0.0000000000000000e+00 0.0000000000000000e+00
6.6145598036448954e+00 0.0000000000000000e+00 0.0000000000000000e+00
6.6147060705717973e+00 0.0000000000000000e+00 0.0000000000000000e+00
6.6148521213554030e+00 0.0000000000000000e+00 0.0000000000000000e+00
6.6149979534632992e+00 0.0000000000000000e+00 0.0000000000000000e+00
6.6151435667860685e+00 0.0000000000000000e+00 0.0000000000000000e+00
6.6152889647719100e+00 0.0000000000000000e+00 0.0000000000000000e+00
6.6154341419038589e+00 0.0000000000000000e+00 0.0000000000000000e+00
6.6155791139863442e+00 0.0000000000000000e+00 0.0000000000000000e+00
6.6157238475827240e+00 0.0000000000000000e+00 0.0000000000000000e+00
6.6158684171907938e+00 0.0000000000000000e+00 0.0000000000000000e+00
6.6160126659451679e+00 0.0000000000000000e+00 0.0000000000000000e+00
6.6161569146995411e+00 0.0000000000000000e+00 0.0000000000000000e+00


SCALARS pressure float
LOOKUP_TABLE default
2.4306327778104780e+01
2.4060120925695916e+01
2.3813914073287052e+01
2.3567762172249946e+01
2.3321704585435764e+01
2.3075760233458958e+01
2.2829912342127724e+01
2.2584131532842594e+01
2.2338423581243628e+01
2.2092804917129275e+01
2.1847276074616740e+01
2.1601836058940322e+01
2.1356484138762514e+01
2.1111209740060008e+01
2.0865994733747968e+01
2.0620839416746595e+01
2.0375752208278922e+01
2.0130769533102029e+01
1.9885913688760592e+01
1.9641151298008822e+01
1.9396457689590765e+01
1.9151835873232542e+01
1.8907295976180876e+01
1.8662839697320113e+01
1.8418463332831145e+01
1.8174127176573233e+01
1.7929840960936062e+01
1.7685645337040246e+01
1.7441534418187047e+01
1.7197501999626965e+01
1.6953549549738639e+01
1.6709678594105466e+01
1.6465885234326802e+01
1.6222161653616329e+01
1.5978498380587327e+01
1.5734895045624656e+01
1.5491353728864659e+01
1.5247875241738804e+01
1.5004460032644277e+01
1.4761107251073433e+01
1.4517818600555831e+01
1.4274595936736246e+01
1.4031437112322005e+01
1.3788340459945323e+01
1.3545304598353518e+01
1.3302328313111131e+01
1.3059410489356017e+01
1.2816550069871495e+01
1.2573746035819815e+01
1.2330997381003803e+01
1.2088303105365274e+01
1.1845662214400555e+01
1.1603073708357407e+01
1.1360536591783832e+01
1.1118049867050821e+01
1.0875612528641749e+01
1.0633223568254731e+01
1.0390881973785152e+01
1.0148586726980371e+01
9.9063368048664220e+00
9.6641311831296974e+00
9.4219688340662398e+00
9.1798487201528172e+00
8.9377698001632542e+00
8.6957310325616390e+00
8.4537313707528128e+00
8.2117697640521481e+00
7.9698451580263532e+00
7.7279564938067384e+00
7.4861027091537693e+00
7.2442827386526236e+00
7.0024955132943516e+00
6.7607399598439537e+00
6.5190150020123729e+00
6.2773195611440844e+00
6.0356525549070437e+00
5.7940128988648958e+00
5.5523995053765169e+00
5.3108112836402164e+00
5.0692471394029912e+00
4.8277059769029886e+00
4.5861866949060195e+00
4.3446881902671022e+00
4.1032093591817462e+00
3.8617491017796324e+00
3.6203063093532775e+00
3.3788798596421659e+00
3.1374686324003469e+00
2.8960715299153992e+00
2.6546874456907350e+00
2.4133152620459843e+00
2.1719538412667361e+00
1.9306020490344926e+00
1.6892587741961096e+00
1.4479228995304199e+00
1.2065932919387679e+00
9.6526884468805352e-01
7.2394838409361084e-01
4.8263087907753993e-01
2.4131500790485699e-01
0.0000000000000000e+00


SCALARS diameter float
LOOKUP_TABLE default
1.0022018655934988e+00
1.0021767493636802e+00
1.0021528451235551e+00
1.0021303857617050e+00
1.0021093989930521e+00
1.0020884995296726e+00
1.0020660005901605e+00
1.0020427228112985e+00
1.0020204367217143e+00
1.0019983104591272e+00
1.0019763483566824e+00
1.0019544698725353e+00
1.0019324483112571e+00
1.0019092679818935e+00
1.0018852827679192e+00
1.0018613962567144e+00
1.0018384899266213e+00
1.0018184304854831e+00
1.0017977778277289e+00
1.0017757485334757e+00
1.0017533903462583e+00
1.0017315553824613e+00
1.0017100590258012e+00
1.0016886468414385e+00
1.0016659768507556e+00
1.0016411819203963e+00
1.0016191142704054e+00
1.0015971059782174e+00
1.0015751018621553e+00
1.0015531490334040e+00
1.0015317232611152e+00
1.0015102965955081e+00
1.0014888422367367e+00
1.0014668089207230e+00
1.0014445552507520e+00
1.0014223075177853e+00
1.0014000647351100e+00
1.0013778262293678e+00
1.0013555924941691e+00
1.0013333786791632e+00
1.0013114241149998e+00
1.0012894725665638e+00
1.0012675243526581e+00
1.0012455797433193e+00
1.0012236387023681e+00
1.0012017011662810e+00
1.0011797671416829e+00
1.0011578367099490e+00
1.0011359101474626e+00
1.0011139868371133e+00
1.0010920672337555e+00
1.0010701508240529e+00
1.0010482378018770e+00
1.0010263283893814e+00
1.0010044223695880e+00
1.0009825196902642e+00
1.0009606204664325e+00
1.0009387245564845e+00
1.0009168318941131e+00
1.0008949425261475e+00
1.0008730566364110e+00
1.0008511739877868e+00
1.0008292943611243e+00
1.0008074179780599e+00
1.0007855448027689e+00
1.0007636747759519e+00
1.0007418079110546e+00
1.0007199441393679e+00
1.0006980834320298e+00
1.0006762257892738e+00
1.0006543711875115e+00
1.0006325195722467e+00
1.0006106708819458e+00
1.0005888251528556e+00
1.0005669823487915e+00
1.0005451424487679e+00
1.0005233055004539e+00
1.0005014713953997e+00
1.0004796401594005e+00
1.0004578116903347e+00
1.0004359860526979e+00
1.0004141628993126e+00
1.0003923425181507e+00
1.0003705248778292e+00
1.0003487103597974e+00
1.0003268978087987e+00
1.0003050872709420e+00
1.0002832792870444e+00
1.0002614751043848e+00
1.0002396732955408e+00
1.0002178741242758e+00
1.0001960756223109e+00
1.0001742801239648e+00
1.0001524869955731e+00
1.0001306963577070e+00
1.0001089079565122e+00
1.0000871218587277e+00
1.0000653379801689e+00
1.0000435565533092e+00
1.0000217774388969e+00
9.9999999999148870e-01


SCALARS iters float
LOOKUP_TABLE default
3.0000000000000000e+00
3.0000000000000000e+00
3.0000000000000000e+00
3.0000000000000000e+00
3.0000000000000000e+00
3.0000000000000000e+00
3.0000000000000000e+00
3.0000000000000000e+00
3.0000000000000000e+00
3.0000000000000000e+00
3.0000000000000000e+00
3.0000000000000000e+00
3.0000000000000000e+00
3.0000000000000000e+00
3.0000000000000000e+00
3.0000000000000000e+00
3.0000000000000000e+00
3.0000000000000000e+00
3.0000000000000000e+00
3.0000000000000000e+00
3.0000000000000000e+00
3.0000000000000000e+00
3.0000000000000000e+00
3.0000000000000000e+00
3.0000000000000000e+00
3.0000000000000000e+00
3.0000000000000000e+00
3.0000000000000000e+00
3.0000000000000000e+00
3.0000000000000000e+00
3.0000000000000000e+00
3.0000000000000000e+00
3.0000000000000000e+00
3.0000000000000000e+00
3.0000000000000000e+00
3.0000000000000000e+00
3.0000000000000000e+00
3.0000000000000000e+00
3.0000000000000000e+00
3.0000000000000000e+00
3.0000000000000000e+00
3.0000000000000000e+00
3.0000000000000000e+00
3.0000000000000000e+00
3.0000000000000000e+00
3.0000000000000000e+00
3.0000000000000000e+00
3.0000000000000000e+00
3.0000000000000000e+00
3.0000000000000000e+00
3.0000000000000000e+00
3.0000000000000000e+00
3.0000000000000000e+00
3.0000000000000000e+00
3.0000000000000000e+00
3.0000000000000000e+00
3.0000000000000000e+00
3.0000000000000000e+00
3.0000000000000000e+00
3.0000000000000000e+00
3.0000000000000000e+00
3.0000000000000000e+00
3.0000000000000000e+00
3.0000000000000000e+00
3.0000000000000000e+00
3.0000000000000000e+00
3.0000000000000000e+00
3.0000000000000000e+00
3.0000000000000000e+00
3.0000000000000000e+00
3.0000000000000000e+00
3.0000000000000000e+00
3.0000000000000000e+00
3.0000000000000000e+00
3.0000000000000000e+00
3.0000000000000000e+00
3.0000000000000000e+00
3.0000000000000000e+00
3.0000000000000000e+00
3.0000000000000000e+00
3.0000000000000000e+00
3.0000000000000000e+00
3.0000000000000000e+00
3.0000000000000000e+00
3.0000000000000000e+00
3.0000000000000000e+00
3.0000000000000000e+00
3.0000000000000000e+00
3.0000000000000000e+00
3.0000000000000000e+00
3.0000000000000000e+00
3.0000000000000000e+00
3.0000000000000000e+00
3.0000000000000000e+00
3.0000000000000000e+00
3.0000000000000000e+00
3.0000000000000000e+00
3.0000000000000000e+00
3.0000000000000000e+00
3.0000000000000000e+00
3.0000000000000000e+00


