# vtk DataFile Version 2.0

ASCII

DATASET UNSTRUCTURED_GRID

POINTS 101 float

0.0000000000000000e+00 0.0000000000000000e+00 0.0000000000000000e+00
1.0000000000000001e-01 0.0000000000000000e+00 0.0000000000000000e+00
2.0000000000000001e-01 0.0000000000000000e+00 0.0000000000000000e+00
3.0000000000000004e-01 0.0000000000000000e+00 0.0000000000000000e+00
4.0000000000000002e-01 0.0000000000000000e+00 0.0000000000000000e+00
5.0000000000000000e-01 0.0000000000000000e+00 0.0000000000000000e+00
6.0000000000000009e-01 0.0000000000000000e+00 0.0000000000000000e+00
7.0000000000000007e-01 0.0000000000000000e+00 0.0000000000000000e+00
8.0000000000000004e-01 0.0000000000000000e+00 0.0000000000000000e+00
9.0000000000000002e-01 0.0000000000000000e+00 0.0000000000000000e+00
1.0000000000000000e+00 0.0000000000000000e+00 0.0000000000000000e+00
1.1000000000000001e+00 0.0000000000000000e+00 0.0000000000000000e+00
1.2000000000000002e+00 0.0000000000000000e+00 0.0000000000000000e+00
1.3000000000000000e+00 0.0000000000000000e+00 0.0000000000000000e+00
1.4000000000000001e+00 0.0000000000000000e+00 0.0000000000000000e+00
1.5000000000000000e+00 0.0000000000000000e+00 0.0000000000000000e+00
1.6000000000000001e+00 0.0000000000000000e+00 0.0000000000000000e+00
1.7000000000000002e+00 0.0000000000000000e+00 0.0000000000000000e+00
1.8000000000000000e+00 0.0000000000000000e+00 0.0000000000000000e+00
1.9000000000000001e+00 0.0000000000000000e+00 0.0000000000000000e+00
2.0000000000000000e+00 0.0000000000000000e+00 0.0000000000000000e+00
2.1000000000000001e+00 0.0000000000000000e+00 0.0000000000000000e+00
2.2000000000000002e+00 0.0000000000000000e+00 0.0000000000000000e+00
2.3000000000000003e+00 0.0000000000000000e+00 0.0000000000000000e+00
2.4000000000000004e+00 0.0000000000000000e+00 0.0000000000000000e+00
2.5000000000000000e+00 0.0000000000000000e+00 0.0000000000000000e+00
2.6000000000000001e+00 0.0000000000000000e+00 0.0000000000000000e+00
2.7000000000000002e+00 0.0000000000000000e+00 0.0000000000000000e+00
2.8000000000000003e+00 0.0000000000000000e+00 0.0000000000000000e+00
2.9000000000000004e+00 0.0000000000000000e+00 0.0000000000000000e+00
3.0000000000000000e+00 0.0000000000000000e+00 0.0000000000000000e+00
3.1000000000000001e+00 0.0000000000000000e+00 0.0000000000000000e+00
3.2000000000000002e+00 0.0000000000000000e+00 0.0000000000000000e+00
3.3000000000000003e+00 0.0000000000000000e+00 0.0000000000000000e+00
3.4000000000000004e+00 0.0000000000000000e+00 0.0000000000000000e+00
3.5000000000000000e+00 0.0000000000000000e+00 0.0000000000000000e+00
3.6000000000000001e+00 0.0000000000000000e+00 0.0000000000000000e+00
3.7000000000000002e+00 0.0000000000000000e+00 0.0000000000000000e+00
3.8000000000000003e+00 0.0000000000000000e+00 0.0000000000000000e+00
3.9000000000000004e+00 0.0000000000000000e+00 0.0000000000000000e+00
4.0000000000000000e+00 0.0000000000000000e+00 0.0000000000000000e+00
4.1000000000000005e+00 0.0000000000000000e+00 0.0000000000000000e+00
4.2000000000000002e+00 0.0000000000000000e+00 0.0000000000000000e+00
4.2999999999999998e+00 0.0000000000000000e+00 0.0000000000000000e+00
4.4000000000000004e+00 0.0000000000000000e+00 0.0000000000000000e+00
4.5000000000000000e+00 0.0000000000000000e+00 0.0000000000000000e+00
4.6000000000000005e+00 0.0000000000000000e+00 0.0000000000000000e+00
4.7000000000000002e+00 0.0000000000000000e+00 0.0000000000000000e+00
4.8000000000000007e+00 0.0000000000000000e+00 0.0000000000000000e+00
4.9000000000000004e+00 0.0000000000000000e+00 0.0000000000000000e+00
5.0000000000000000e+00 0.0000000000000000e+00 0.0000000000000000e+00
5.1000000000000005e+00 0.0000000000000000e+00 0.0000000000000000e+00
5.2000000000000002e+00 0.0000000000000000e+00 0.0000000000000000e+00
5.3000000000000007e+00 0.0000000000000000e+00 0.0000000000000000e+00
5.4000000000000004e+00 0.0000000000000000e+00 0.0000000000000000e+00
5.5000000000000000e+00 0.0000000000000000e+00 0.0000000000000000e+00
5.6000000000000005e+00 0.0000000000000000e+00 0.0000000000000000e+00
5.7000000000000002e+00 0.0000000000000000e+00 0.0000000000000000e+00
5.8000000000000007e+00 0.0000000000000000e+00 0.0000000000000000e+00
5.9000000000000004e+00 0.0000000000000000e+00 0.0000000000000000e+00
6.0000000000000000e+00 0.0000000000000000e+00 0.0000000000000000e+00
6.1000000000000005e+00 0.0000000000000000e+00 0.0000000000000000e+00
6.2000000000000002e+00 0.0000000000000000e+00 0.0000000000000000e+00
6.3000000000000007e+00 0.0000000000000000e+00 0.0000000000000000e+00
6.4000000000000004e+00 0.0000000000000000e+00 0.0000000000000000e+00
6.5000000000000000e+00 0.0000000000000000e+00 0.0000000000000000e+00
6.6000000000000005e+00 0.0000000000000000e+00 0.0000000000000000e+00
6.7000000000000002e+00 0.0000000000000000e+00 0.0000000000000000e+00
6.8000000000000007e+00 0.0000000000000000e+00 0.0000000000000000e+00
6.9000000000000004e+00 0.0000000000000000e+00 0.0000000000000000e+00
7.0000000000000000e+00 0.0000000000000000e+00 0.0000000000000000e+00
7.1000000000000005e+00 0.0000000000000000e+00 0.0000000000000000e+00
7.2000000000000002e+00 0.0000000000000000e+00 0.0000000000000000e+00
7.3000000000000007e+00 0.0000000000000000e+00 0.0000000000000000e+00
7.4000000000000004e+00 0.0000000000000000e+00 0.0000000000000000e+00
7.5000000000000000e+00 0.0000000000000000e+00 0.0000000000000000e+00
7.6000000000000005e+00 0.0000000000000000e+00 0.0000000000000000e+00
7.7000000000000002e+00 0.0000000000000000e+00 0.0000000000000000e+00
7.8000000000000007e+00 0.0000000000000000e+00 0.0000000000000000e+00
7.9000000000000004e+00 0.0000000000000000e+00 0.0000000000000000e+00
8.0000000000000000e+00 0.0000000000000000e+00 0.0000000000000000e+00
8.0999999999999996e+00 0.0000000000000000e+00 0.0000000000000000e+00
8.2000000000000011e+00 0.0000000000000000e+00 0.0000000000000000e+00
8.3000000000000007e+00 0.0000000000000000e+00 0.0000000000000000e+00
8.4000000000000004e+00 0.0000000000000000e+00 0.0000000000000000e+00
8.5000000000000000e+00 0.0000000000000000e+00 0.0000000000000000e+00
8.5999999999999996e+00 0.0000000000000000e+00 0.0000000000000000e+00
8.7000000000000011e+00 0.0000000000000000e+00 0.0000000000000000e+00
8.8000000000000007e+00 0.0000000000000000e+00 0.0000000000000000e+00
8.9000000000000004e+00 0.0000000000000000e+00 0.0000000000000000e+00
9.0000000000000000e+00 0.0000000000000000e+00 0.0000000000000000e+00
9.0999999999999996e+00 0.0000000000000000e+00 0.0000000000000000e+00
9.2000000000000011e+00 0.0000000000000000e+00 0.0000000000000000e+00
9.3000000000000007e+00 0.0000000000000000e+00 0.0000000000000000e+00
9.4000000000000004e+00 0.0000000000000000e+00 0.0000000000000000e+00
9.5000000000000000e+00 0.0000000000000000e+00 0.0000000000000000e+00
9.6000000000000014e+00 0.0000000000000000e+00 0.0000000000000000e+00
9.7000000000000011e+00 0.0000000000000000e+00 0.0000000000000000e+00
9.8000000000000007e+00 0.0000000000000000e+00 0.0000000000000000e+00
9.9000000000000004e+00 0.0000000000000000e+00 0.0000000000000000e+00
1.0000000000000000e+01 0.0000000000000000e+00 0.0000000000000000e+00

POINT_DATA 101

VECTORS velocity float
6.3601288624448165e+00 0.0000000000000000e+00 0.0000000000000000e+00
6.3600804646561713e+00 0.0000000000000000e+00 0.0000000000000000e+00
6.3600239574522410e+00 0.0000000000000000e+00 0.0000000000000000e+00
6.3599643830702304e+00 0.0000000000000000e+00 0.0000000000000000e+00
6.3599027384308151e+00 0.0000000000000000e+00 0.0000000000000000e+00
6.3598410951047057e+00 0.0000000000000000e+00 0.0000000000000000e+00
6.3597809743669949e+00 0.0000000000000000e+00 0.0000000000000000e+00
6.3597303519588166e+00 0.0000000000000000e+00 0.0000000000000000e+00
6.3596847732435888e+00 0.0000000000000000e+00 0.0000000000000000e+00
6.3596314149127169e+00 0.0000000000000000e+00 0.0000000000000000e+00
6.3595730501030490e+00 0.0000000000000000e+00 0.0000000000000000e+00
6.3595125706124298e+00 0.0000000000000000e+00 0.0000000000000000e+00
6.3594476636786208e+00 0.0000000000000000e+00 0.0000000000000000e+00
6.3593807695991886e+00 0.0000000000000000e+00 0.0000000000000000e+00
6.3593167431327347e+00 0.0000000000000000e+00 0.0000000000000000e+00
6.3592530692096760e+00 0.0000000000000000e+00 0.0000000000000000e+00
6.3591948995060141e+00 0.0000000000000000e+00 0.0000000000000000e+00
6.3591446763981772e+00 0.0000000000000000e+00 0.0000000000000000e+00
6.3590906996821648e+00 0.0000000000000000e+00 0.0000000000000000e+00
6.3590286528236106e+00 0.0000000000000000e+00 0.0000000000000000e+00
6.3589620958342579e+00 0.0000000000000000e+00 0.0000000000000000e+00
6.3588934958242040e+00 0.0000000000000000e+00 0.0000000000000000e+00
6.3588259153164506e+00 0.0000000000000000e+00 0.0000000000000000e+00
6.3587643263699940e+00 0.0000000000000000e+00 0.0000000000000000e+00
6.3587082026780921e+00 0.0000000000000000e+00 0.0000000000000000e+00
6.3586507510324966e+00 0.0000000000000000e+00 0.0000000000000000e+00
6.3585911263934944e+00 0.0000000000000000e+00 0.0000000000000000e+00
6.3585309351566162e+00 0.0000000000000000e+00 0.0000000000000000e+00
6.3584706882986550e+00 0.0000000000000000e+00 0.0000000000000000e+00
6.3584089962429911e+00 0.0000000000000000e+00 0.0000000000000000e+00
6.3583452828884557e+00 0.0000000000000000e+00 0.0000000000000000e+00
6.3582803156376073e+00 0.0000000000000000e+00 0.0000000000000000e+00
6.3582149359008522e+00 0.0000000000000000e+00 0.0000000000000000e+00
6.3581510859408708e+00 0.0000000000000000e+00 0.0000000000000000e+00
6.3580884345980584e+00 0.0000000000000000e+00 0.0000000000000000e+00
6.3580262142201942e+00 0.0000000000000000e+00 0.0000000000000000e+00
6.3579642323562275e+00 0.0000000000000000e+00 0.0000000000000000e+00
6.3579023225447076e+00 0.0000000000000000e+00 0.0000000000000000e+00
6.3578405182877695e+00 0.0000000000000000e+00 0.0000000000000000e+00
6.3577784229274101e+00 0.0000000000000000e+00 0.0000000000000000e+00
6.3577158290468141e+00 0.0000000000000000e+00 0.0000000000000000e+00
6.3576530571272061e+00 0.0000000000000000e+00 0.0000000000000000e+00
6.3575901710032534e+00 0.0000000000000000e+00 0.0000000000000000e+00
6.3575272082520398e+00 0.0000000000000000e+00 0.0000000000000000e+00
6.3574641925125972e+00 0.0000000000000000e+00 0.0000000000000000e+00
6.3574011460733146e+00 0.0000000000000000e+00 0.0000000000000000e+00
6.3573380795857943e+00 0.0000000000000000e+00 0.0000000000000000e+00
6.3572749919777731e+00 0.0000000000000000e+00 0.0000000000000000e+00
6.3572118851285824e+00 0.0000000000000000e+00 0.0000000000000000e+00
6.3571487628220860e+00 0.0000000000000000e+00 0.0000000000000000e+00
6.3570856282689574e+00 0.0000000000000000e+00 0.0000000000000000e+00
6.3570224825934023e+00 0.0000000000000000e+00 0.0000000000000000e+00
6.3569593272427110e+00 0.0000000000000000e+00 0.0000000000000000e+00
6.3568961620698294e+00 0.0000000000000000e+00 0.0000000000000000e+00
6.3568329877708116e+00 0.0000000000000000e+00 0.0000000000000000e+00
6.3567698049068380e+00 0.0000000000000000e+00 0.0000000000000000e+00
6.3567066138041124e+00 0.0000000000000000e+00 0.0000000000000000e+00
6.3566434160176826e+00 0.0000000000000000e+00 0.0000000000000000e+00
6.3565802123924859e+00 0.0000000000000000e+00 0.0000000000000000e+00
6.3565170038112058e+00 0.0000000000000000e+00 0.0000000000000000e+00
6.3564537908995646e+00 0.0000000000000000e+00 0.0000000000000000e+00
6.3563905723961520e+00 0.0000000000000000e+00 0.0000000000000000e+00
6.3563273480882829e+00 0.0000000000000000e+00 0.0000000000000000e+00
6.3562641194580571e+00 0.0000000000000000e+00 0.0000000000000000e+00
6.3562008874053459e+00 0.0000000000000000e+00 0.0000000000000000e+00
6.3561376525760682e+00 0.0000000000000000e+00 0.0000000000000000e+00
6.3560744154722224e+00 0.0000000000000000e+00 0.0000000000000000e+00
6.3560111768646834e+00 0.0000000000000000e+00 0.0000000000000000e+00
6.3559479373954346e+00 0.0000000000000000e+00 0.0000000000000000e+00
6.3558846973329590e+00 0.0000000000000000e+00 0.0000000000000000e+00
6.3558214567468827e+00 0.0000000000000000e+00 0.0000000000000000e+00
6.3557582151441725e+00 0.0000000000000000e+00 0.0000000000000000e+00
6.3556949718722855e+00 0.0000000000000000e+00 0.0000000000000000e+00
6.3556317277037824e+00 0.0000000000000000e+00 0.0000000000000000e+00
6.3555684823090823e+00 0.0000000000000000e+00 0.0000000000000000e+00
6.3555052372542962e+00 0.0000000000000000e+00 0.0000000000000000e+00
6.3554419933946384e+00 0.0000000000000000e+00 0.0000000000000000e+00
6.3553787511162660e+00 0.0000000000000000e+00 0.0000000000000000e+00
6.3553155093433995e+00 0.0000000000000000e+00 0.0000000000000000e+00
6.3552522656788470e+00 0.0000000000000000e+00 0.0000000000000000e+00
6.3551890226025662e+00 0.0000000000000000e+00 0.0000000000000000e+00
6.3551257802522976e+00 0.0000000000000000e+00 0.0000000000000000e+00
6.3550625388256519e+00 0.0000000000000000e+00 0.0000000000000000e+00
6.3549992995142048e+00 0.0000000000000000e+00 0.0000000000000000e+00
6.3549360626943274e+00 0.0000000000000000e+00 0.0000000000000000e+00
6.3548728241207044e+00 0.0000000000000000e+00 0.0000000000000000e+00
6.3548095896119685e+00 0.0000000000000000e+00 0.0000000000000000e+00
6.3547463565075111e+00 0.0000000000000000e+00 0.0000000000000000e+00
6.3546831193017095e+00 0.0000000000000000e+00 0.0000000000000000e+00
6.3546198842211172e+00 0.0000000000000000e+00 0.0000000000000000e+00
6.3545566529156021e+00 0.0000000000000000e+00 0.0000000000000000e+00
6.3544934226301582e+00 0.0000000000000000e+00 0.0000000000000000e+00
6.3544301910668510e+00 0.0000000000000000e+00 0.0000000000000000e+00
6.3543669623833114e+00 0.0000000000000000e+00 0.0000000000000000e+00
6.3543037330468408e+00 0.0000000000000000e+00 0.0000000000000000e+00
6.3542405030071807e+00 0.0000000000000000e+00 0.0000000000000000e+00
6.3541772722624836e+00 0.0000000000000000e+00 0.0000000000000000e+00
6.3541140439644117e+00 0.0000000000000000e+00 0.0000000000000000e+00
6.3540508096128585e+00 0.0000000000000000e+00 0.0000000000000000e+00
6.3539875631165881e+00 0.0000000000000000e+00 0.0000000000000000e+00
6.3539243166203176e+00 0.0000000000000000e+00 0.0000000000000000e+00


SCALARS pressure float
LOOKUP_TABLE default
-1.1039045183940736e+01
-1.0927639612053555e+01
-1.0816234040166375e+01
-1.0704813711290109e+01
-1.0593396608572151e+01
-1.0481992351478395e+01
-1.0370613098228860e+01
-1.0259269259591177e+01
-1.0148000253749030e+01
-1.0036797559628845e+01
-9.9256005558399458e+00
-9.8144040654735285e+00
-9.7032196116208862e+00
-9.5920399776439798e+00
-9.4808739106975324e+00
-9.3697457909809252e+00
-9.2586512103684342e+00
-9.1476121866657216e+00
-9.0366459114390327e+00
-8.9257039432942999e+00
-8.8147522402572669e+00
-8.7037967631266877e+00
-8.5928503045986488e+00
-8.4819304264967279e+00
-8.3710646769897501e+00
-8.2602582128722570e+00
-8.1494814384258056e+00
-8.0387218151847311e+00
-7.9279827467499624e+00
-7.8172672986655876e+00
-7.7065698600307853e+00
-7.5958859663153477e+00
-7.4852175862729800e+00
-7.3745688521053241e+00
-7.2639494689698108e+00
-7.1533604781862694e+00
-7.0427984291704382e+00
-6.9322611604814233e+00
-6.8217469992203101e+00
-6.7112552986009497e+00
-6.6007838332869708e+00
-6.4903308986935517e+00
-6.3798972663641473e+00
-6.2694832604204347e+00
-6.1590889540601514e+00
-6.0487142827986284e+00
-5.9383591343983930e+00
-5.8280233282779550e+00
-5.7177066091364201e+00
-5.6074087115034352e+00
-5.4971293737275753e+00
-5.3868683307662026e+00
-5.2766253052374292e+00
-5.1664000157549230e+00
-5.0561921706677309e+00
-4.9460014773290197e+00
-4.8358276404105336e+00
-4.7256703609794384e+00
-4.6155293428245852e+00
-4.5054042856159615e+00
-4.3952948863287968e+00
-4.2852008383530551e+00
-4.1751218238886505e+00
-4.0650575251184558e+00
-3.9550076304027155e+00
-3.8449718257868244e+00
-3.7349497940622531e+00
-3.6249412150171825e+00
-3.5149457674048570e+00
-3.4049631277537307e+00
-3.2949929689477995e+00
-3.1850349606510195e+00
-3.0750887678276548e+00
-2.9651540521905146e+00
-2.8552304798501145e+00
-2.7453177121117771e+00
-2.6354154164496566e+00
-2.5255232578481506e+00
-2.4156408975087875e+00
-2.3057679879136863e+00
-2.1959041722154056e+00
-2.0860491121067786e+00
-1.9762024632293944e+00
-1.8663638789812071e+00
-1.7565330158419519e+00
-1.6467095269094729e+00
-1.5368930425422049e+00
-1.4270832314945137e+00
-1.3172797346348886e+00
-1.2074821714192676e+00
-1.0976902076677391e+00
-9.8790350138145699e-01
-8.7812168795734502e-01
-7.6834439792686815e-01
-6.5857128918897101e-01
-5.4880199294438947e-01
-4.3903614647801625e-01
-3.2927339387110660e-01
-2.1951338050319788e-01
-1.0975574187133769e-01
0.0000000000000000e+00


SCALARS diameter float
LOOKUP_TABLE default
9.9900695991316613e-01
9.9901527018004377e-01
9.9902597384887615e-01
9.9903671375022429e-01
9.9904741872316183e-01
9.9905805886447518e-01
9.9906798795547214e-01
9.9907642015699949e-01
9.9908228691088297e-01
9.9909153598601874e-01
9.9910211058207032e-01
9.9911268258765040e-01
9.9912374105001633e-01
9.9913561753331381e-01
9.9914609531283638e-01
9.9915630864324889e-01
9.9916600159731428e-01
9.9917306047771681e-01
9.9918128463396172e-01
9.9919232913521694e-01
9.9920399394388681e-01
9.9921573303766320e-01
9.9922692802552593e-01
9.9923673507321065e-01
9.9924486706661653e-01
9.9925375591587295e-01
9.9926369253995806e-01
9.9927353530822516e-01
9.9928337833155156e-01
9.9929328100649784e-01
9.9930388284965943e-01
9.9931446111748434e-01
9.9932519700318412e-01
9.9933537345286205e-01
9.9934519648311393e-01
9.9935502035637591e-01
9.9936484381437418e-01
9.9937466685977694e-01
9.9938448869682084e-01
9.9939432136083939e-01
9.9940432033208304e-01
9.9941431125296087e-01
9.9942429710091085e-01
9.9943427936713658e-01
9.9944425850522212e-01
9.9945423331399619e-01
9.9946420224382360e-01
9.9947416868913319e-01
9.9948413275596359e-01
9.9949409417206070e-01
9.9950405220026117e-01
9.9951400730734064e-01
9.9952395942836048e-01
9.9953390885368343e-01
9.9954385591222827e-01
9.9955380036127239e-01
9.9956374266152670e-01
9.9957368245135392e-01
9.9958361981725841e-01
9.9959355481049428e-01
9.9960348748379924e-01
9.9961341826154981e-01
9.9962334766364525e-01
9.9963327517576639e-01
9.9964320086223712e-01
9.9965312471720369e-01
9.9966304690602015e-01
9.9967296738738798e-01
9.9968288621201540e-01
9.9969280346681311e-01
9.9970271935234434e-01
9.9971263405152266e-01
9.9972254794075899e-01
9.9973246093344614e-01
9.9974237300823432e-01
9.9975228436255115e-01
9.9976219429140845e-01
9.9977210356434598e-01
9.9978201183215365e-01
9.9979192052120058e-01
9.9980182874219370e-01
9.9981173627077924e-01
9.9982164367306570e-01
9.9983155038679239e-01
9.9984145670538982e-01
9.9985136321451773e-01
9.9986127020524229e-01
9.9987117525931890e-01
9.9988108343922000e-01
9.9989099063387332e-01
9.9990089772160284e-01
9.9991080443582037e-01
9.9992071292482487e-01
9.9993062104656738e-01
9.9994052969511760e-01
9.9995043980724319e-01
9.9996035024391128e-01
9.9997026140403533e-01
9.9998017372808545e-01
9.9999008956888080e-01
1.0000000107651121e+00


SCALARS iters float
LOOKUP_TABLE default
3.0000000000000000e+00
3.0000000000000000e+00
3.0000000000000000e+00
3.0000000000000000e+00
3.0000000000000000e+00
3.0000000000000000e+00
3.0000000000000000e+00
3.0000000000000000e+00
3.0000000000000000e+00
3.0000000000000000e+00
3.0000000000000000e+00
3.0000000000000000e+00
3.0000000000000000e+00
3.0000000000000000e+00
3.0000000000000000e+00
3.0000000000000000e+00
3.0000000000000000e+00
3.0000000000000000e+00
3.0000000000000000e+00
3.0000000000000000e+00
3.0000000000000000e+00
3.0000000000000000e+00
3.0000000000000000e+00
3.0000000000000000e+00
3.0000000000000000e+00
3.0000000000000000e+00
3.0000000000000000e+00
3.0000000000000000e+00
3.0000000000000000e+00
3.0000000000000000e+00
3.0000000000000000e+00
3.0000000000000000e+00
3.0000000000000000e+00
3.0000000000000000e+00
3.0000000000000000e+00
3.0000000000000000e+00
3.0000000000000000e+00
3.0000000000000000e+00
3.0000000000000000e+00
3.0000000000000000e+00
3.0000000000000000e+00
3.0000000000000000e+00
3.0000000000000000e+00
3.0000000000000000e+00
3.0000000000000000e+00
3.0000000000000000e+00
3.0000000000000000e+00
3.0000000000000000e+00
3.0000000000000000e+00
3.0000000000000000e+00
3.0000000000000000e+00
3.0000000000000000e+00
3.0000000000000000e+00
3.0000000000000000e+00
3.0000000000000000e+00
3.0000000000000000e+00
3.0000000000000000e+00
3.0000000000000000e+00
3.0000000000000000e+00
3.0000000000000000e+00
3.0000000000000000e+00
3.0000000000000000e+00
3.0000000000000000e+00
3.0000000000000000e+00
3.0000000000000000e+00
3.0000000000000000e+00
3.0000000000000000e+00
3.0000000000000000e+00
3.0000000000000000e+00
3.0000000000000000e+00
3.0000000000000000e+00
3.0000000000000000e+00
3.0000000000000000e+00
3.0000000000000000e+00
3.0000000000000000e+00
3.0000000000000000e+00
3.0000000000000000e+00
3.0000000000000000e+00
3.0000000000000000e+00
3.0000000000000000e+00
3.0000000000000000e+00
3.0000000000000000e+00
3.0000000000000000e+00
3.0000000000000000e+00
3.0000000000000000e+00
3.0000000000000000e+00
3.0000000000000000e+00
3.0000000000000000e+00
3.0000000000000000e+00
3.0000000000000000e+00
3.0000000000000000e+00
3.0000000000000000e+00
3.0000000000000000e+00
3.0000000000000000e+00
3.0000000000000000e+00
3.0000000000000000e+00
3.0000000000000000e+00
3.0000000000000000e+00
3.0000000000000000e+00
3.0000000000000000e+00
3.0000000000000000e+00


