# vtk DataFile Version 2.0

ASCII

DATASET UNSTRUCTURED_GRID

POINTS 101 float

0.0000000000000000e+00 0.0000000000000000e+00 0.0000000000000000e+00
1.0000000000000001e-01 0.0000000000000000e+00 0.0000000000000000e+00
2.0000000000000001e-01 0.0000000000000000e+00 0.0000000000000000e+00
3.0000000000000004e-01 0.0000000000000000e+00 0.0000000000000000e+00
4.0000000000000002e-01 0.0000000000000000e+00 0.0000000000000000e+00
5.0000000000000000e-01 0.0000000000000000e+00 0.0000000000000000e+00
6.0000000000000009e-01 0.0000000000000000e+00 0.0000000000000000e+00
7.0000000000000007e-01 0.0000000000000000e+00 0.0000000000000000e+00
8.0000000000000004e-01 0.0000000000000000e+00 0.0000000000000000e+00
9.0000000000000002e-01 0.0000000000000000e+00 0.0000000000000000e+00
1.0000000000000000e+00 0.0000000000000000e+00 0.0000000000000000e+00
1.1000000000000001e+00 0.0000000000000000e+00 0.0000000000000000e+00
1.2000000000000002e+00 0.0000000000000000e+00 0.0000000000000000e+00
1.3000000000000000e+00 0.0000000000000000e+00 0.0000000000000000e+00
1.4000000000000001e+00 0.0000000000000000e+00 0.0000000000000000e+00
1.5000000000000000e+00 0.0000000000000000e+00 0.0000000000000000e+00
1.6000000000000001e+00 0.0000000000000000e+00 0.0000000000000000e+00
1.7000000000000002e+00 0.0000000000000000e+00 0.0000000000000000e+00
1.8000000000000000e+00 0.0000000000000000e+00 0.0000000000000000e+00
1.9000000000000001e+00 0.0000000000000000e+00 0.0000000000000000e+00
2.0000000000000000e+00 0.0000000000000000e+00 0.0000000000000000e+00
2.1000000000000001e+00 0.0000000000000000e+00 0.0000000000000000e+00
2.2000000000000002e+00 0.0000000000000000e+00 0.0000000000000000e+00
2.3000000000000003e+00 0.0000000000000000e+00 0.0000000000000000e+00
2.4000000000000004e+00 0.0000000000000000e+00 0.0000000000000000e+00
2.5000000000000000e+00 0.0000000000000000e+00 0.0000000000000000e+00
2.6000000000000001e+00 0.0000000000000000e+00 0.0000000000000000e+00
2.7000000000000002e+00 0.0000000000000000e+00 0.0000000000000000e+00
2.8000000000000003e+00 0.0000000000000000e+00 0.0000000000000000e+00
2.9000000000000004e+00 0.0000000000000000e+00 0.0000000000000000e+00
3.0000000000000000e+00 0.0000000000000000e+00 0.0000000000000000e+00
3.1000000000000001e+00 0.0000000000000000e+00 0.0000000000000000e+00
3.2000000000000002e+00 0.0000000000000000e+00 0.0000000000000000e+00
3.3000000000000003e+00 0.0000000000000000e+00 0.0000000000000000e+00
3.4000000000000004e+00 0.0000000000000000e+00 0.0000000000000000e+00
3.5000000000000000e+00 0.0000000000000000e+00 0.0000000000000000e+00
3.6000000000000001e+00 0.0000000000000000e+00 0.0000000000000000e+00
3.7000000000000002e+00 0.0000000000000000e+00 0.0000000000000000e+00
3.8000000000000003e+00 0.0000000000000000e+00 0.0000000000000000e+00
3.9000000000000004e+00 0.0000000000000000e+00 0.0000000000000000e+00
4.0000000000000000e+00 0.0000000000000000e+00 0.0000000000000000e+00
4.1000000000000005e+00 0.0000000000000000e+00 0.0000000000000000e+00
4.2000000000000002e+00 0.0000000000000000e+00 0.0000000000000000e+00
4.2999999999999998e+00 0.0000000000000000e+00 0.0000000000000000e+00
4.4000000000000004e+00 0.0000000000000000e+00 0.0000000000000000e+00
4.5000000000000000e+00 0.0000000000000000e+00 0.0000000000000000e+00
4.6000000000000005e+00 0.0000000000000000e+00 0.0000000000000000e+00
4.7000000000000002e+00 0.0000000000000000e+00 0.0000000000000000e+00
4.8000000000000007e+00 0.0000000000000000e+00 0.0000000000000000e+00
4.9000000000000004e+00 0.0000000000000000e+00 0.0000000000000000e+00
5.0000000000000000e+00 0.0000000000000000e+00 0.0000000000000000e+00
5.1000000000000005e+00 0.0000000000000000e+00 0.0000000000000000e+00
5.2000000000000002e+00 0.0000000000000000e+00 0.0000000000000000e+00
5.3000000000000007e+00 0.0000000000000000e+00 0.0000000000000000e+00
5.4000000000000004e+00 0.0000000000000000e+00 0.0000000000000000e+00
5.5000000000000000e+00 0.0000000000000000e+00 0.0000000000000000e+00
5.6000000000000005e+00 0.0000000000000000e+00 0.0000000000000000e+00
5.7000000000000002e+00 0.0000000000000000e+00 0.0000000000000000e+00
5.8000000000000007e+00 0.0000000000000000e+00 0.0000000000000000e+00
5.9000000000000004e+00 0.0000000000000000e+00 0.0000000000000000e+00
6.0000000000000000e+00 0.0000000000000000e+00 0.0000000000000000e+00
6.1000000000000005e+00 0.0000000000000000e+00 0.0000000000000000e+00
6.2000000000000002e+00 0.0000000000000000e+00 0.0000000000000000e+00
6.3000000000000007e+00 0.0000000000000000e+00 0.0000000000000000e+00
6.4000000000000004e+00 0.0000000000000000e+00 0.0000000000000000e+00
6.5000000000000000e+00 0.0000000000000000e+00 0.0000000000000000e+00
6.6000000000000005e+00 0.0000000000000000e+00 0.0000000000000000e+00
6.7000000000000002e+00 0.0000000000000000e+00 0.0000000000000000e+00
6.8000000000000007e+00 0.0000000000000000e+00 0.0000000000000000e+00
6.9000000000000004e+00 0.0000000000000000e+00 0.0000000000000000e+00
7.0000000000000000e+00 0.0000000000000000e+00 0.0000000000000000e+00
7.1000000000000005e+00 0.0000000000000000e+00 0.0000000000000000e+00
7.2000000000000002e+00 0.0000000000000000e+00 0.0000000000000000e+00
7.3000000000000007e+00 0.0000000000000000e+00 0.0000000000000000e+00
7.4000000000000004e+00 0.0000000000000000e+00 0.0000000000000000e+00
7.5000000000000000e+00 0.0000000000000000e+00 0.0000000000000000e+00
7.6000000000000005e+00 0.0000000000000000e+00 0.0000000000000000e+00
7.7000000000000002e+00 0.0000000000000000e+00 0.0000000000000000e+00
7.8000000000000007e+00 0.0000000000000000e+00 0.0000000000000000e+00
7.9000000000000004e+00 0.0000000000000000e+00 0.0000000000000000e+00
8.0000000000000000e+00 0.0000000000000000e+00 0.0000000000000000e+00
8.0999999999999996e+00 0.0000000000000000e+00 0.0000000000000000e+00
8.2000000000000011e+00 0.0000000000000000e+00 0.0000000000000000e+00
8.3000000000000007e+00 0.0000000000000000e+00 0.0000000000000000e+00
8.4000000000000004e+00 0.0000000000000000e+00 0.0000000000000000e+00
8.5000000000000000e+00 0.0000000000000000e+00 0.0000000000000000e+00
8.5999999999999996e+00 0.0000000000000000e+00 0.0000000000000000e+00
8.7000000000000011e+00 0.0000000000000000e+00 0.0000000000000000e+00
8.8000000000000007e+00 0.0000000000000000e+00 0.0000000000000000e+00
8.9000000000000004e+00 0.0000000000000000e+00 0.0000000000000000e+00
9.0000000000000000e+00 0.0000000000000000e+00 0.0000000000000000e+00
9.0999999999999996e+00 0.0000000000000000e+00 0.0000000000000000e+00
9.2000000000000011e+00 0.0000000000000000e+00 0.0000000000000000e+00
9.3000000000000007e+00 0.0000000000000000e+00 0.0000000000000000e+00
9.4000000000000004e+00 0.0000000000000000e+00 0.0000000000000000e+00
9.5000000000000000e+00 0.0000000000000000e+00 0.0000000000000000e+00
9.6000000000000014e+00 0.0000000000000000e+00 0.0000000000000000e+00
9.7000000000000011e+00 0.0000000000000000e+00 0.0000000000000000e+00
9.8000000000000007e+00 0.0000000000000000e+00 0.0000000000000000e+00
9.9000000000000004e+00 0.0000000000000000e+00 0.0000000000000000e+00
1.0000000000000000e+01 0.0000000000000000e+00 0.0000000000000000e+00

POINT_DATA 101

VECTORS velocity float
5.4392336744290155e+00 0.0000000000000000e+00 0.0000000000000000e+00
5.4395213434944099e+00 0.0000000000000000e+00 0.0000000000000000e+00
5.4398001146741750e+00 0.0000000000000000e+00 0.0000000000000000e+00
5.4400701541073015e+00 0.0000000000000000e+00 0.0000000000000000e+00
5.4403332735993395e+00 0.0000000000000000e+00 0.0000000000000000e+00
5.4405929606755237e+00 0.0000000000000000e+00 0.0000000000000000e+00
5.4408534668419382e+00 0.0000000000000000e+00 0.0000000000000000e+00
5.4411149524663589e+00 0.0000000000000000e+00 0.0000000000000000e+00
5.4413733158763797e+00 0.0000000000000000e+00 0.0000000000000000e+00
5.4416267455554692e+00 0.0000000000000000e+00 0.0000000000000000e+00
5.4418764891831088e+00 0.0000000000000000e+00 0.0000000000000000e+00
5.4421233342436155e+00 0.0000000000000000e+00 0.0000000000000000e+00
5.4423685635063705e+00 0.0000000000000000e+00 0.0000000000000000e+00
5.4426148105271066e+00 0.0000000000000000e+00 0.0000000000000000e+00
5.4428619550749291e+00 0.0000000000000000e+00 0.0000000000000000e+00
5.4431089590220401e+00 0.0000000000000000e+00 0.0000000000000000e+00
5.4433519275352280e+00 0.0000000000000000e+00 0.0000000000000000e+00
5.4435885126543004e+00 0.0000000000000000e+00 0.0000000000000000e+00
5.4438222162711734e+00 0.0000000000000000e+00 0.0000000000000000e+00
5.4440546717095915e+00 0.0000000000000000e+00 0.0000000000000000e+00
5.4442853591500890e+00 0.0000000000000000e+00 0.0000000000000000e+00
5.4445141033191868e+00 0.0000000000000000e+00 0.0000000000000000e+00
5.4447412807939468e+00 0.0000000000000000e+00 0.0000000000000000e+00
5.4449672416461539e+00 0.0000000000000000e+00 0.0000000000000000e+00
5.4451934369922883e+00 0.0000000000000000e+00 0.0000000000000000e+00
5.4454186118647572e+00 0.0000000000000000e+00 0.0000000000000000e+00
5.4456403107816831e+00 0.0000000000000000e+00 0.0000000000000000e+00
5.4458595491220994e+00 0.0000000000000000e+00 0.0000000000000000e+00
5.4460766768726341e+00 0.0000000000000000e+00 0.0000000000000000e+00
5.4462910073383508e+00 0.0000000000000000e+00 0.0000000000000000e+00
5.4465020953457435e+00 0.0000000000000000e+00 0.0000000000000000e+00
5.4467105058232459e+00 0.0000000000000000e+00 0.0000000000000000e+00
5.4469168658609046e+00 0.0000000000000000e+00 0.0000000000000000e+00
5.4471219083415434e+00 0.0000000000000000e+00 0.0000000000000000e+00
5.4473253517827382e+00 0.0000000000000000e+00 0.0000000000000000e+00
5.4475268787295015e+00 0.0000000000000000e+00 0.0000000000000000e+00
5.4477263721751719e+00 0.0000000000000000e+00 0.0000000000000000e+00
5.4479237641178120e+00 0.0000000000000000e+00 0.0000000000000000e+00
5.4481190072929708e+00 0.0000000000000000e+00 0.0000000000000000e+00
5.4483121058638115e+00 0.0000000000000000e+00 0.0000000000000000e+00
5.4485031316729549e+00 0.0000000000000000e+00 0.0000000000000000e+00
5.4486920467252506e+00 0.0000000000000000e+00 0.0000000000000000e+00
5.4488788408222462e+00 0.0000000000000000e+00 0.0000000000000000e+00
5.4490635057740269e+00 0.0000000000000000e+00 0.0000000000000000e+00
5.4492460343861726e+00 0.0000000000000000e+00 0.0000000000000000e+00
5.4494264195833537e+00 0.0000000000000000e+00 0.0000000000000000e+00
5.4496046543338714e+00 0.0000000000000000e+00 0.0000000000000000e+00
5.4497807309961601e+00 0.0000000000000000e+00 0.0000000000000000e+00
5.4499546428210550e+00 0.0000000000000000e+00 0.0000000000000000e+00
5.4501263829951077e+00 0.0000000000000000e+00 0.0000000000000000e+00
5.4502959441546963e+00 0.0000000000000000e+00 0.0000000000000000e+00
5.4504633198802610e+00 0.0000000000000000e+00 0.0000000000000000e+00
5.4506285030487689e+00 0.0000000000000000e+00 0.0000000000000000e+00
5.4507914866016343e+00 0.0000000000000000e+00 0.0000000000000000e+00
5.4509522641764283e+00 0.0000000000000000e+00 0.0000000000000000e+00
5.4511108294210464e+00 0.0000000000000000e+00 0.0000000000000000e+00
5.4512671754213251e+00 0.0000000000000000e+00 0.0000000000000000e+00
5.4514212958983315e+00 0.0000000000000000e+00 0.0000000000000000e+00
5.4515731851865104e+00 0.0000000000000000e+00 0.0000000000000000e+00
5.4517228370389352e+00 0.0000000000000000e+00 0.0000000000000000e+00
5.4518702452234615e+00 0.0000000000000000e+00 0.0000000000000000e+00
5.4520154042279758e+00 0.0000000000000000e+00 0.0000000000000000e+00
5.4521583084846323e+00 0.0000000000000000e+00 0.0000000000000000e+00
5.4522989520499969e+00 0.0000000000000000e+00 0.0000000000000000e+00
5.4524373293987320e+00 0.0000000000000000e+00 0.0000000000000000e+00
5.4525734351517254e+00 0.0000000000000000e+00 0.0000000000000000e+00
5.4527072639650624e+00 0.0000000000000000e+00 0.0000000000000000e+00
5.4528388107611372e+00 0.0000000000000000e+00 0.0000000000000000e+00
5.4529680705248618e+00 0.0000000000000000e+00 0.0000000000000000e+00
5.4530950382636441e+00 0.0000000000000000e+00 0.0000000000000000e+00
5.4532197091328740e+00 0.0000000000000000e+00 0.0000000000000000e+00
5.4533420784575197e+00 0.0000000000000000e+00 0.0000000000000000e+00
5.4534621416433344e+00 0.0000000000000000e+00 0.0000000000000000e+00
5.4535798941511811e+00 0.0000000000000000e+00 0.0000000000000000e+00
5.4536953316398025e+00 0.0000000000000000e+00 0.0000000000000000e+00
5.4538084497067203e+00 0.0000000000000000e+00 0.0000000000000000e+00
5.4539192442877873e+00 0.0000000000000000e+00 0.0000000000000000e+00
5.4540277112171864e+00 0.0000000000000000e+00 0.0000000000000000e+00
5.4541338466600688e+00 0.0000000000000000e+00 0.0000000000000000e+00
5.4542376470829161e+00 0.0000000000000000e+00 0.0000000000000000e+00
5.4543391086314310e+00 0.0000000000000000e+00 0.0000000000000000e+00
5.4544382278043795e+00 0.0000000000000000e+00 0.0000000000000000e+00
5.4545350009860645e+00 0.0000000000000000e+00 0.0000000000000000e+00
5.4546294249034277e+00 0.0000000000000000e+00 0.0000000000000000e+00
5.4547214961896122e+00 0.0000000000000000e+00 0.0000000000000000e+00
5.4548112118598722e+00 0.0000000000000000e+00 0.0000000000000000e+00
5.4548985693220091e+00 0.0000000000000000e+00 0.0000000000000000e+00
5.4549835646086082e+00 0.0000000000000000e+00 0.0000000000000000e+00
5.4550661947393992e+00 0.0000000000000000e+00 0.0000000000000000e+00
5.4551464569904358e+00 0.0000000000000000e+00 0.0000000000000000e+00
5.4552243506730669e+00 0.0000000000000000e+00 0.0000000000000000e+00
5.4552998731082960e+00 0.0000000000000000e+00 0.0000000000000000e+00
5.4553730217647791e+00 0.0000000000000000e+00 0.0000000000000000e+00
5.4554437918832761e+00 0.0000000000000000e+00 0.0000000000000000e+00
5.4555121893473943e+00 0.0000000000000000e+00 0.0000000000000000e+00
5.4555781884105530e+00 0.0000000000000000e+00 0.0000000000000000e+00
5.4556418517530263e+00 0.0000000000000000e+00 0.0000000000000000e+00
5.4557030038955316e+00 0.0000000000000000e+00 0.0000000000000000e+00
5.4557621077019283e+00 0.0000000000000000e+00 0.0000000000000000e+00
5.4558179227685430e+00 0.0000000000000000e+00 0.0000000000000000e+00
5.4558737378351578e+00 0.0000000000000000e+00 0.0000000000000000e+00


SCALARS pressure float
LOOKUP_TABLE default
9.9865922873212032e+00
9.8890192255798102e+00
9.7914461638384171e+00
9.6938477349577621e+00
9.5962131925228551e+00
9.4985304977246692e+00
9.4007809806864699e+00
9.3029413631238747e+00
9.2050065393659803e+00
9.1069942290748269e+00
9.0089167016953251e+00
8.9107720614408397e+00
8.8125573571371749e+00
8.7142670327471929e+00
8.6158891080642999e+00
8.5174222620843896e+00
8.4188717132812130e+00
8.3202567530136502e+00
8.2215928274513850e+00
8.1228688577243098e+00
8.0240757362295252e+00
7.9252143824853487e+00
7.8262869920925908e+00
7.7272940834811834e+00
7.6282358985710266e+00
7.5291055674876386e+00
7.4299065426127680e+00
7.3306517671192601e+00
7.2313408253647822e+00
7.1319730838279369e+00
7.0325523068763660e+00
6.9330821763293304e+00
6.8335620167584734e+00
6.7339898779035776e+00
6.6343630236016544e+00
6.5346828762227664e+00
6.4349519278945335e+00
6.3351720617564347e+00
6.2353448095922115e+00
6.1354715762198753e+00
6.0355534079134285e+00
5.9355909084162537e+00
5.8355851654138196e+00
5.7355372843164556e+00
5.6354483823582466e+00
5.5353195842992235e+00
5.4351520211219482e+00
5.3349468277950525e+00
5.2347051443929411e+00
5.1344281092978550e+00
5.0341168614236462e+00
4.9337725423799181e+00
4.8333962906104375e+00
4.7329892470685060e+00
4.6325525530205107e+00
4.5320873469254108e+00
4.4315947668297317e+00
4.3310759531828804e+00
4.2305320441890046e+00
4.1299641750482632e+00
4.0293734828718719e+00
3.9287611051450599e+00
3.8281281763153001e+00
3.7274758304252025e+00
3.6268052030509934e+00
3.5261174283127312e+00
3.4254136393866892e+00
3.3246949690559613e+00
3.2239625488445740e+00
3.1232175096830379e+00
3.0224609821952169e+00
2.9216940962382352e+00
2.8209179806905409e+00
2.7201337637962455e+00
2.6193425733263442e+00
2.5185455359594107e+00
2.4177437783076750e+00
2.3169384253387859e+00
2.2161306019970239e+00
2.1153214315501652e+00
2.0145120355098651e+00
1.9137035362198969e+00
1.8128970544475556e+00
1.7120937109076575e+00
1.6112946246866968e+00
1.5105009148026447e+00
1.4097136980785028e+00
1.3089340888884513e+00
1.2081632072349731e+00
1.1074021699039815e+00
1.0066520914491879e+00
9.0591407632725363e-01
8.0518923550466903e-01
7.0447867986858614e-01
6.0378353175908828e-01
5.0310486428900569e-01
4.0244388883681381e-01
3.0180143415305705e-01
2.0117934688459646e-01
1.0057676440556881e-01
0.0000000000000000e+00


SCALARS diameter float
LOOKUP_TABLE default
1.0009050406877293e+00
1.0008949058997212e+00
1.0008849137590150e+00
1.0008759745719231e+00
1.0008677314254599e+00
1.0008595031841356e+00
1.0008501839448483e+00
1.0008399509609875e+00
1.0008302454820917e+00
1.0008216835087018e+00
1.0008134850419450e+00
1.0008053040844884e+00
1.0007970357826870e+00
1.0007879288685129e+00
1.0007779783146118e+00
1.0007679519748311e+00
1.0007582904729819e+00
1.0007503581535866e+00
1.0007423134008187e+00
1.0007337338296933e+00
1.0007250342584386e+00
1.0007164647372386e+00
1.0007077367790125e+00
1.0006988097927314e+00
1.0006892887721375e+00
1.0006792981434629e+00
1.0006702752242875e+00
1.0006612437436502e+00
1.0006522139270224e+00
1.0006432235916267e+00
1.0006346691925811e+00
1.0006261091809645e+00
1.0006175338835266e+00
1.0006086308940119e+00
1.0005995952383477e+00
1.0005905607052434e+00
1.0005815266598204e+00
1.0005724928912019e+00
1.0005634594348505e+00
1.0005544245841571e+00
1.0005453563504334e+00
1.0005362851846271e+00
1.0005272119898057e+00
1.0005181372504539e+00
1.0005090611135554e+00
1.0004999836880639e+00
1.0004909050723292e+00
1.0004818254133803e+00
1.0004727448592112e+00
1.0004636630827395e+00
1.0004545804963789e+00
1.0004454968753322e+00
1.0004364123262461e+00
1.0004273270666084e+00
1.0004182410100808e+00
1.0004091541227171e+00
1.0004000665713475e+00
1.0003909784804190e+00
1.0003818896230265e+00
1.0003728001053831e+00
1.0003637100982157e+00
1.0003546195327828e+00
1.0003455283332112e+00
1.0003364366896894e+00
1.0003273446530738e+00
1.0003182521984049e+00
1.0003091594081128e+00
1.0003000662740980e+00
1.0002909728144380e+00
1.0002818790815045e+00
1.0002727851204996e+00
1.0002636909440030e+00
1.0002545965782983e+00
1.0002455020736056e+00
1.0002364074526380e+00
1.0002273127602594e+00
1.0002182180558932e+00
1.0002091233031813e+00
1.0002000286495063e+00
1.0001909338897648e+00
1.0001818392359034e+00
1.0001727446088622e+00
1.0001636501411009e+00
1.0001545557985838e+00
1.0001454616524306e+00
1.0001363676922088e+00
1.0001272738332669e+00
1.0001181802929455e+00
1.0001090874454814e+00
1.0000999948213956e+00
1.0000909025536600e+00
1.0000818098057438e+00
1.0000727180066782e+00
1.0000636262586744e+00
1.0000545351629897e+00
1.0000454445330247e+00
1.0000363544323414e+00
1.0000272648685287e+00
1.0000181759430731e+00
1.0000090877111312e+00
1.0000000000400744e+00


SCALARS iters float
LOOKUP_TABLE default
4.0000000000000000e+00
4.0000000000000000e+00
4.0000000000000000e+00
4.0000000000000000e+00
4.0000000000000000e+00
4.0000000000000000e+00
4.0000000000000000e+00
4.0000000000000000e+00
4.0000000000000000e+00
4.0000000000000000e+00
4.0000000000000000e+00
4.0000000000000000e+00
4.0000000000000000e+00
4.0000000000000000e+00
4.0000000000000000e+00
4.0000000000000000e+00
4.0000000000000000e+00
4.0000000000000000e+00
4.0000000000000000e+00
4.0000000000000000e+00
4.0000000000000000e+00
4.0000000000000000e+00
4.0000000000000000e+00
4.0000000000000000e+00
4.0000000000000000e+00
4.0000000000000000e+00
4.0000000000000000e+00
4.0000000000000000e+00
4.0000000000000000e+00
4.0000000000000000e+00
4.0000000000000000e+00
4.0000000000000000e+00
4.0000000000000000e+00
4.0000000000000000e+00
4.0000000000000000e+00
4.0000000000000000e+00
4.0000000000000000e+00
4.0000000000000000e+00
4.0000000000000000e+00
4.0000000000000000e+00
4.0000000000000000e+00
4.0000000000000000e+00
4.0000000000000000e+00
4.0000000000000000e+00
4.0000000000000000e+00
4.0000000000000000e+00
4.0000000000000000e+00
4.0000000000000000e+00
4.0000000000000000e+00
4.0000000000000000e+00
4.0000000000000000e+00
4.0000000000000000e+00
4.0000000000000000e+00
4.0000000000000000e+00
4.0000000000000000e+00
4.0000000000000000e+00
4.0000000000000000e+00
4.0000000000000000e+00
4.0000000000000000e+00
4.0000000000000000e+00
4.0000000000000000e+00
4.0000000000000000e+00
4.0000000000000000e+00
4.0000000000000000e+00
4.0000000000000000e+00
4.0000000000000000e+00
4.0000000000000000e+00
4.0000000000000000e+00
4.0000000000000000e+00
4.0000000000000000e+00
4.0000000000000000e+00
4.0000000000000000e+00
4.0000000000000000e+00
4.0000000000000000e+00
4.0000000000000000e+00
4.0000000000000000e+00
4.0000000000000000e+00
4.0000000000000000e+00
4.0000000000000000e+00
4.0000000000000000e+00
4.0000000000000000e+00
4.0000000000000000e+00
4.0000000000000000e+00
4.0000000000000000e+00
4.0000000000000000e+00
4.0000000000000000e+00
4.0000000000000000e+00
4.0000000000000000e+00
4.0000000000000000e+00
4.0000000000000000e+00
4.0000000000000000e+00
4.0000000000000000e+00
4.0000000000000000e+00
4.0000000000000000e+00
4.0000000000000000e+00
4.0000000000000000e+00
4.0000000000000000e+00
4.0000000000000000e+00
4.0000000000000000e+00
4.0000000000000000e+00
4.0000000000000000e+00


