# vtk DataFile Version 2.0

ASCII

DATASET UNSTRUCTURED_GRID

POINTS 101 float

0.0000000000000000e+00 0.0000000000000000e+00 0.0000000000000000e+00
1.0000000000000001e-01 0.0000000000000000e+00 0.0000000000000000e+00
2.0000000000000001e-01 0.0000000000000000e+00 0.0000000000000000e+00
3.0000000000000004e-01 0.0000000000000000e+00 0.0000000000000000e+00
4.0000000000000002e-01 0.0000000000000000e+00 0.0000000000000000e+00
5.0000000000000000e-01 0.0000000000000000e+00 0.0000000000000000e+00
6.0000000000000009e-01 0.0000000000000000e+00 0.0000000000000000e+00
7.0000000000000007e-01 0.0000000000000000e+00 0.0000000000000000e+00
8.0000000000000004e-01 0.0000000000000000e+00 0.0000000000000000e+00
9.0000000000000002e-01 0.0000000000000000e+00 0.0000000000000000e+00
1.0000000000000000e+00 0.0000000000000000e+00 0.0000000000000000e+00
1.1000000000000001e+00 0.0000000000000000e+00 0.0000000000000000e+00
1.2000000000000002e+00 0.0000000000000000e+00 0.0000000000000000e+00
1.3000000000000000e+00 0.0000000000000000e+00 0.0000000000000000e+00
1.4000000000000001e+00 0.0000000000000000e+00 0.0000000000000000e+00
1.5000000000000000e+00 0.0000000000000000e+00 0.0000000000000000e+00
1.6000000000000001e+00 0.0000000000000000e+00 0.0000000000000000e+00
1.7000000000000002e+00 0.0000000000000000e+00 0.0000000000000000e+00
1.8000000000000000e+00 0.0000000000000000e+00 0.0000000000000000e+00
1.9000000000000001e+00 0.0000000000000000e+00 0.0000000000000000e+00
2.0000000000000000e+00 0.0000000000000000e+00 0.0000000000000000e+00
2.1000000000000001e+00 0.0000000000000000e+00 0.0000000000000000e+00
2.2000000000000002e+00 0.0000000000000000e+00 0.0000000000000000e+00
2.3000000000000003e+00 0.0000000000000000e+00 0.0000000000000000e+00
2.4000000000000004e+00 0.0000000000000000e+00 0.0000000000000000e+00
2.5000000000000000e+00 0.0000000000000000e+00 0.0000000000000000e+00
2.6000000000000001e+00 0.0000000000000000e+00 0.0000000000000000e+00
2.7000000000000002e+00 0.0000000000000000e+00 0.0000000000000000e+00
2.8000000000000003e+00 0.0000000000000000e+00 0.0000000000000000e+00
2.9000000000000004e+00 0.0000000000000000e+00 0.0000000000000000e+00
3.0000000000000000e+00 0.0000000000000000e+00 0.0000000000000000e+00
3.1000000000000001e+00 0.0000000000000000e+00 0.0000000000000000e+00
3.2000000000000002e+00 0.0000000000000000e+00 0.0000000000000000e+00
3.3000000000000003e+00 0.0000000000000000e+00 0.0000000000000000e+00
3.4000000000000004e+00 0.0000000000000000e+00 0.0000000000000000e+00
3.5000000000000000e+00 0.0000000000000000e+00 0.0000000000000000e+00
3.6000000000000001e+00 0.0000000000000000e+00 0.0000000000000000e+00
3.7000000000000002e+00 0.0000000000000000e+00 0.0000000000000000e+00
3.8000000000000003e+00 0.0000000000000000e+00 0.0000000000000000e+00
3.9000000000000004e+00 0.0000000000000000e+00 0.0000000000000000e+00
4.0000000000000000e+00 0.0000000000000000e+00 0.0000000000000000e+00
4.1000000000000005e+00 0.0000000000000000e+00 0.0000000000000000e+00
4.2000000000000002e+00 0.0000000000000000e+00 0.0000000000000000e+00
4.2999999999999998e+00 0.0000000000000000e+00 0.0000000000000000e+00
4.4000000000000004e+00 0.0000000000000000e+00 0.0000000000000000e+00
4.5000000000000000e+00 0.0000000000000000e+00 0.0000000000000000e+00
4.6000000000000005e+00 0.0000000000000000e+00 0.0000000000000000e+00
4.7000000000000002e+00 0.0000000000000000e+00 0.0000000000000000e+00
4.8000000000000007e+00 0.0000000000000000e+00 0.0000000000000000e+00
4.9000000000000004e+00 0.0000000000000000e+00 0.0000000000000000e+00
5.0000000000000000e+00 0.0000000000000000e+00 0.0000000000000000e+00
5.1000000000000005e+00 0.0000000000000000e+00 0.0000000000000000e+00
5.2000000000000002e+00 0.0000000000000000e+00 0.0000000000000000e+00
5.3000000000000007e+00 0.0000000000000000e+00 0.0000000000000000e+00
5.4000000000000004e+00 0.0000000000000000e+00 0.0000000000000000e+00
5.5000000000000000e+00 0.0000000000000000e+00 0.0000000000000000e+00
5.6000000000000005e+00 0.0000000000000000e+00 0.0000000000000000e+00
5.7000000000000002e+00 0.0000000000000000e+00 0.0000000000000000e+00
5.8000000000000007e+00 0.0000000000000000e+00 0.0000000000000000e+00
5.9000000000000004e+00 0.0000000000000000e+00 0.0000000000000000e+00
6.0000000000000000e+00 0.0000000000000000e+00 0.0000000000000000e+00
6.1000000000000005e+00 0.0000000000000000e+00 0.0000000000000000e+00
6.2000000000000002e+00 0.0000000000000000e+00 0.0000000000000000e+00
6.3000000000000007e+00 0.0000000000000000e+00 0.0000000000000000e+00
6.4000000000000004e+00 0.0000000000000000e+00 0.0000000000000000e+00
6.5000000000000000e+00 0.0000000000000000e+00 0.0000000000000000e+00
6.6000000000000005e+00 0.0000000000000000e+00 0.0000000000000000e+00
6.7000000000000002e+00 0.0000000000000000e+00 0.0000000000000000e+00
6.8000000000000007e+00 0.0000000000000000e+00 0.0000000000000000e+00
6.9000000000000004e+00 0.0000000000000000e+00 0.0000000000000000e+00
7.0000000000000000e+00 0.0000000000000000e+00 0.0000000000000000e+00
7.1000000000000005e+00 0.0000000000000000e+00 0.0000000000000000e+00
7.2000000000000002e+00 0.0000000000000000e+00 0.0000000000000000e+00
7.3000000000000007e+00 0.0000000000000000e+00 0.0000000000000000e+00
7.4000000000000004e+00 0.0000000000000000e+00 0.0000000000000000e+00
7.5000000000000000e+00 0.0000000000000000e+00 0.0000000000000000e+00
7.6000000000000005e+00 0.0000000000000000e+00 0.0000000000000000e+00
7.7000000000000002e+00 0.0000000000000000e+00 0.0000000000000000e+00
7.8000000000000007e+00 0.0000000000000000e+00 0.0000000000000000e+00
7.9000000000000004e+00 0.0000000000000000e+00 0.0000000000000000e+00
8.0000000000000000e+00 0.0000000000000000e+00 0.0000000000000000e+00
8.0999999999999996e+00 0.0000000000000000e+00 0.0000000000000000e+00
8.2000000000000011e+00 0.0000000000000000e+00 0.0000000000000000e+00
8.3000000000000007e+00 0.0000000000000000e+00 0.0000000000000000e+00
8.4000000000000004e+00 0.0000000000000000e+00 0.0000000000000000e+00
8.5000000000000000e+00 0.0000000000000000e+00 0.0000000000000000e+00
8.5999999999999996e+00 0.0000000000000000e+00 0.0000000000000000e+00
8.7000000000000011e+00 0.0000000000000000e+00 0.0000000000000000e+00
8.8000000000000007e+00 0.0000000000000000e+00 0.0000000000000000e+00
8.9000000000000004e+00 0.0000000000000000e+00 0.0000000000000000e+00
9.0000000000000000e+00 0.0000000000000000e+00 0.0000000000000000e+00
9.0999999999999996e+00 0.0000000000000000e+00 0.0000000000000000e+00
9.2000000000000011e+00 0.0000000000000000e+00 0.0000000000000000e+00
9.3000000000000007e+00 0.0000000000000000e+00 0.0000000000000000e+00
9.4000000000000004e+00 0.0000000000000000e+00 0.0000000000000000e+00
9.5000000000000000e+00 0.0000000000000000e+00 0.0000000000000000e+00
9.6000000000000014e+00 0.0000000000000000e+00 0.0000000000000000e+00
9.7000000000000011e+00 0.0000000000000000e+00 0.0000000000000000e+00
9.8000000000000007e+00 0.0000000000000000e+00 0.0000000000000000e+00
9.9000000000000004e+00 0.0000000000000000e+00 0.0000000000000000e+00
1.0000000000000000e+01 0.0000000000000000e+00 0.0000000000000000e+00

POINT_DATA 101

VECTORS velocity float
5.3570112111330879e+00 0.0000000000000000e+00 0.0000000000000000e+00
5.3565213077766982e+00 0.0000000000000000e+00 0.0000000000000000e+00
5.3560330581011426e+00 0.0000000000000000e+00 0.0000000000000000e+00
5.3555483593576989e+00 0.0000000000000000e+00 0.0000000000000000e+00
5.3550681472363371e+00 0.0000000000000000e+00 0.0000000000000000e+00
5.3545928773137792e+00 0.0000000000000000e+00 0.0000000000000000e+00
5.3541227686239177e+00 0.0000000000000000e+00 0.0000000000000000e+00
5.3536579255508299e+00 0.0000000000000000e+00 0.0000000000000000e+00
5.3531983979945812e+00 0.0000000000000000e+00 0.0000000000000000e+00
5.3527442104200906e+00 0.0000000000000000e+00 0.0000000000000000e+00
5.3522953762201277e+00 0.0000000000000000e+00 0.0000000000000000e+00
5.3518519043960007e+00 0.0000000000000000e+00 0.0000000000000000e+00
5.3514138019422326e+00 0.0000000000000000e+00 0.0000000000000000e+00
5.3509810752276854e+00 0.0000000000000000e+00 0.0000000000000000e+00
5.3505537304826669e+00 0.0000000000000000e+00 0.0000000000000000e+00
5.3501317739668721e+00 0.0000000000000000e+00 0.0000000000000000e+00
5.3497152120006302e+00 0.0000000000000000e+00 0.0000000000000000e+00
5.3493040509424290e+00 0.0000000000000000e+00 0.0000000000000000e+00
5.3488982971664498e+00 0.0000000000000000e+00 0.0000000000000000e+00
5.3484979570383846e+00 0.0000000000000000e+00 0.0000000000000000e+00
5.3481030368980216e+00 0.0000000000000000e+00 0.0000000000000000e+00
5.3477135430432492e+00 0.0000000000000000e+00 0.0000000000000000e+00
5.3473294817260131e+00 0.0000000000000000e+00 0.0000000000000000e+00
5.3469508591339920e+00 0.0000000000000000e+00 0.0000000000000000e+00
5.3465776814257779e+00 0.0000000000000000e+00 0.0000000000000000e+00
5.3462099546255200e+00 0.0000000000000000e+00 0.0000000000000000e+00
5.3458476848948644e+00 0.0000000000000000e+00 0.0000000000000000e+00
5.3454908777853651e+00 0.0000000000000000e+00 0.0000000000000000e+00
5.3451395402876019e+00 0.0000000000000000e+00 0.0000000000000000e+00
5.3447936752040457e+00 0.0000000000000000e+00 0.0000000000000000e+00
5.3444532984208681e+00 0.0000000000000000e+00 0.0000000000000000e+00
5.3441184096792993e+00 0.0000000000000000e+00 0.0000000000000000e+00
5.3437889997690666e+00 0.0000000000000000e+00 0.0000000000000000e+00
5.3434650911824528e+00 0.0000000000000000e+00 0.0000000000000000e+00
5.3431466858379322e+00 0.0000000000000000e+00 0.0000000000000000e+00
5.3428337889575905e+00 0.0000000000000000e+00 0.0000000000000000e+00
5.3425264058050583e+00 0.0000000000000000e+00 0.0000000000000000e+00
5.3422245416352210e+00 0.0000000000000000e+00 0.0000000000000000e+00
5.3419282016669021e+00 0.0000000000000000e+00 0.0000000000000000e+00
5.3416373910711004e+00 0.0000000000000000e+00 0.0000000000000000e+00
5.3413521149597880e+00 0.0000000000000000e+00 0.0000000000000000e+00
5.3410723783815470e+00 0.0000000000000000e+00 0.0000000000000000e+00
5.3407981863235570e+00 0.0000000000000000e+00 0.0000000000000000e+00
5.3405295437086249e+00 0.0000000000000000e+00 0.0000000000000000e+00
5.3402664553934338e+00 0.0000000000000000e+00 0.0000000000000000e+00
5.3400089261696859e+00 0.0000000000000000e+00 0.0000000000000000e+00
5.3397569607624797e+00 0.0000000000000000e+00 0.0000000000000000e+00
5.3395105638306246e+00 0.0000000000000000e+00 0.0000000000000000e+00
5.3392697399670208e+00 0.0000000000000000e+00 0.0000000000000000e+00
5.3390344936977350e+00 0.0000000000000000e+00 0.0000000000000000e+00
5.3388048294819415e+00 0.0000000000000000e+00 0.0000000000000000e+00
5.3385807517126151e+00 0.0000000000000000e+00 0.0000000000000000e+00
5.3383622647157463e+00 0.0000000000000000e+00 0.0000000000000000e+00
5.3381493727490810e+00 0.0000000000000000e+00 0.0000000000000000e+00
5.3379420800035238e+00 0.0000000000000000e+00 0.0000000000000000e+00
5.3377403906040675e+00 0.0000000000000000e+00 0.0000000000000000e+00
5.3375443086057652e+00 0.0000000000000000e+00 0.0000000000000000e+00
5.3373538379964396e+00 0.0000000000000000e+00 0.0000000000000000e+00
5.3371689826985103e+00 0.0000000000000000e+00 0.0000000000000000e+00
5.3369897465642806e+00 0.0000000000000000e+00 0.0000000000000000e+00
5.3368161333779174e+00 0.0000000000000000e+00 0.0000000000000000e+00
5.3366481468566214e+00 0.0000000000000000e+00 0.0000000000000000e+00
5.3364857906481769e+00 0.0000000000000000e+00 0.0000000000000000e+00
5.3363290683321223e+00 0.0000000000000000e+00 0.0000000000000000e+00
5.3361779834205318e+00 0.0000000000000000e+00 0.0000000000000000e+00
5.3360325393563981e+00 0.0000000000000000e+00 0.0000000000000000e+00
5.3358927395128708e+00 0.0000000000000000e+00 0.0000000000000000e+00
5.3357585871943343e+00 0.0000000000000000e+00 0.0000000000000000e+00
5.3356300856378915e+00 0.0000000000000000e+00 0.0000000000000000e+00
5.3355072380099839e+00 0.0000000000000000e+00 0.0000000000000000e+00
5.3353900474087101e+00 0.0000000000000000e+00 0.0000000000000000e+00
5.3352785168617736e+00 0.0000000000000000e+00 0.0000000000000000e+00
5.3351726493281975e+00 0.0000000000000000e+00 0.0000000000000000e+00
5.3350724476979652e+00 0.0000000000000000e+00 0.0000000000000000e+00
5.3349779147905112e+00 0.0000000000000000e+00 0.0000000000000000e+00
5.3348890533549769e+00 0.0000000000000000e+00 0.0000000000000000e+00
5.3348058660714734e+00 0.0000000000000000e+00 0.0000000000000000e+00
5.3347283555515315e+00 0.0000000000000000e+00 0.0000000000000000e+00
5.3346565243345045e+00 0.0000000000000000e+00 0.0000000000000000e+00
5.3345903748911816e+00 0.0000000000000000e+00 0.0000000000000000e+00
5.3345299096208594e+00 0.0000000000000000e+00 0.0000000000000000e+00
5.3344751308545764e+00 0.0000000000000000e+00 0.0000000000000000e+00
5.3344260408501611e+00 0.0000000000000000e+00 0.0000000000000000e+00
5.3343826417974203e+00 0.0000000000000000e+00 0.0000000000000000e+00
5.3343449358137027e+00 0.0000000000000000e+00 0.0000000000000000e+00
5.3343129249519530e+00 0.0000000000000000e+00 0.0000000000000000e+00
5.3342866111742282e+00 0.0000000000000000e+00 0.0000000000000000e+00
5.3342659964238157e+00 0.0000000000000000e+00 0.0000000000000000e+00
5.3342510824423996e+00 0.0000000000000000e+00 0.0000000000000000e+00
5.3342418712395379e+00 0.0000000000000000e+00 0.0000000000000000e+00
5.3342383638738671e+00 0.0000000000000000e+00 0.0000000000000000e+00
5.3342405636037267e+00 0.0000000000000000e+00 0.0000000000000000e+00
5.3342484677695658e+00 0.0000000000000000e+00 0.0000000000000000e+00
5.3342620886850236e+00 0.0000000000000000e+00 0.0000000000000000e+00
5.3342813999062111e+00 0.0000000000000000e+00 0.0000000000000000e+00
5.3343064743475406e+00 0.0000000000000000e+00 0.0000000000000000e+00
5.3343371294499997e+00 0.0000000000000000e+00 0.0000000000000000e+00
5.3343738382216239e+00 0.0000000000000000e+00 0.0000000000000000e+00
5.3344153915393901e+00 0.0000000000000000e+00 0.0000000000000000e+00
5.3344648930349372e+00 0.0000000000000000e+00 0.0000000000000000e+00
5.3345143945304843e+00 0.0000000000000000e+00 0.0000000000000000e+00


SCALARS pressure float
LOOKUP_TABLE default
1.3290506673329039e+01
1.3159729307080889e+01
1.3028951940832737e+01
1.2898155418601872e+01
1.2767330440813039e+01
1.2636472524763386e+01
1.2505579498772699e+01
1.2374650273873648e+01
1.2243684252146707e+01
1.2112681048287349e+01
1.1981640363506674e+01
1.1850561928245794e+01
1.1719445477975993e+01
1.1588290747051420e+01
1.1457097466396121e+01
1.1325865363559506e+01
1.1194594163413228e+01
1.1063283588913270e+01
1.0931933361761267e+01
1.0800543202855565e+01
1.0669112832606965e+01
1.0537641971144120e+01
1.0406130338464219e+01
1.0274577654503693e+01
1.0142983639254959e+01
1.0011348012631407e+01
9.8796704949547003e+00
9.7479508057569930e+00
9.6161886671381840e+00
9.4843837946119791e+00
9.3525359222808184e+00
9.2206447244784382e+00
9.0887099361330907e+00
8.9567313545156484e+00
8.8247086419735119e+00
8.6926415224667863e+00
8.5605297189783407e+00
8.4283729541130530e+00
8.2961709504002421e+00
8.1639234304586203e+00
8.0316301170758884e+00
7.8992907332774136e+00
7.7669050023669408e+00
7.6344726479330021e+00
7.5019933938714942e+00
7.3694669644078434e+00
7.2368930841059607e+00
7.1042714778871652e+00
6.9716018710429806e+00
6.8388839892461997e+00
6.7061175585673380e+00
6.5733023054888449e+00
6.4404379569152850e+00
6.3075242401889504e+00
6.1745608831101908e+00
6.0415476139461646e+00
5.9084841614380785e+00
5.7753702548325814e+00
5.6422056238876301e+00
5.5089899988746582e+00
5.3757231106120855e+00
5.2424046904751211e+00
5.1090344704029578e+00
4.9756121829229327e+00
4.8421375611617439e+00
4.7086103388551086e+00
4.5750302503683038e+00
4.4413970307160096e+00
4.3077104155735055e+00
4.1739701412828554e+00
4.0401759448813559e+00
3.9063275641088961e+00
3.7724247374305953e+00
3.6384672040455555e+00
3.5044547039018092e+00
3.3703869777182907e+00
3.2362637670007084e+00
3.1020848140509307e+00
2.9678498619778879e+00
2.8335586547289617e+00
2.6992109370919914e+00
2.5648064547212330e+00
2.4303449541395450e+00
2.2958261827741637e+00
2.1612498889530536e+00
2.0266158219347337e+00
1.8919237318928248e+00
1.7571733700398562e+00
1.6223644883534381e+00
1.4874968403187712e+00
1.3525701790750897e+00
1.2175842622848143e+00
1.0825388396219320e+00
9.4743368501642822e-01
8.1226851383260779e-01
6.7704319567437332e-01
5.4175720807521166e-01
4.0641103842277793e-01
2.7100258872127325e-01
1.3553639032614972e-01
0.0000000000000000e+00


SCALARS diameter float
LOOKUP_TABLE default
1.0012008189542980e+00
1.0011889924356263e+00
1.0011771661312043e+00
1.0011653383087737e+00
1.0011535081275740e+00
1.0011416751811906e+00
1.0011298392738850e+00
1.0011180003061522e+00
1.0011061582253851e+00
1.0010943130556187e+00
1.0010824648297851e+00
1.0010706133789091e+00
1.0010587586815736e+00
1.0010469007143086e+00
1.0010350394547320e+00
1.0010231748804530e+00
1.0010113069662916e+00
1.0009994356894152e+00
1.0009875610259682e+00
1.0009756829521408e+00
1.0009638014434605e+00
1.0009519164759584e+00
1.0009400280255840e+00
1.0009281360686204e+00
1.0009162405803396e+00
1.0009043415363719e+00
1.0008924389131602e+00
1.0008805326861419e+00
1.0008686228316634e+00
1.0008567093258203e+00
1.0008447918002066e+00
1.0008328667191917e+00
1.0008209461381505e+00
1.0008090178098046e+00
1.0007970857071811e+00
1.0007851498044711e+00
1.0007732100774309e+00
1.0007612665010650e+00
1.0007493190508361e+00
1.0007373677011886e+00
1.0007254124271125e+00
1.0007134532046400e+00
1.0007014900088365e+00
1.0006895228144883e+00
1.0006775515972028e+00
1.0006655763320553e+00
1.0006535969944617e+00
1.0006416135599288e+00
1.0006296260037815e+00
1.0006176343013957e+00
1.0006056384284345e+00
1.0005936383602383e+00
1.0005816340722369e+00
1.0005696255402314e+00
1.0005576127401128e+00
1.0005455956469940e+00
1.0005335742368680e+00
1.0005215484861436e+00
1.0005095183696309e+00
1.0004974838635488e+00
1.0004854449441174e+00
1.0004734015870373e+00
1.0004613537683473e+00
1.0004493014645015e+00
1.0004372446510894e+00
1.0004251833044593e+00
1.0004131174008399e+00
1.0004010469171534e+00
1.0003889718289525e+00
1.0003768921130711e+00
1.0003648077459015e+00
1.0003527187040322e+00
1.0003406249644400e+00
1.0003285265031445e+00
1.0003164232975417e+00
1.0003043153241920e+00
1.0002922025607401e+00
1.0002800849828581e+00
1.0002679625687736e+00
1.0002558352947957e+00
1.0002437031388749e+00
1.0002315660775944e+00
1.0002194240887978e+00
1.0002072771501873e+00
1.0001951252385530e+00
1.0001829683320087e+00
1.0001708064082655e+00
1.0001586394454554e+00
1.0001464674205958e+00
1.0001342903122381e+00
1.0001221080987419e+00
1.0001099207579012e+00
1.0000977282679304e+00
1.0000855306084431e+00
1.0000733277534510e+00
1.0000611196922680e+00
1.0000489063778859e+00
1.0000366878542124e+00
1.0000244639327986e+00
1.0000122350216960e+00
9.9999999999969524e-01


SCALARS iters float
LOOKUP_TABLE default
3.0000000000000000e+00
3.0000000000000000e+00
3.0000000000000000e+00
3.0000000000000000e+00
3.0000000000000000e+00
3.0000000000000000e+00
3.0000000000000000e+00
3.0000000000000000e+00
3.0000000000000000e+00
3.0000000000000000e+00
3.0000000000000000e+00
3.0000000000000000e+00
3.0000000000000000e+00
3.0000000000000000e+00
3.0000000000000000e+00
3.0000000000000000e+00
3.0000000000000000e+00
3.0000000000000000e+00
3.0000000000000000e+00
3.0000000000000000e+00
3.0000000000000000e+00
3.0000000000000000e+00
3.0000000000000000e+00
3.0000000000000000e+00
3.0000000000000000e+00
3.0000000000000000e+00
3.0000000000000000e+00
3.0000000000000000e+00
3.0000000000000000e+00
3.0000000000000000e+00
3.0000000000000000e+00
3.0000000000000000e+00
3.0000000000000000e+00
3.0000000000000000e+00
3.0000000000000000e+00
3.0000000000000000e+00
3.0000000000000000e+00
3.0000000000000000e+00
3.0000000000000000e+00
3.0000000000000000e+00
3.0000000000000000e+00
3.0000000000000000e+00
3.0000000000000000e+00
3.0000000000000000e+00
3.0000000000000000e+00
3.0000000000000000e+00
3.0000000000000000e+00
3.0000000000000000e+00
3.0000000000000000e+00
3.0000000000000000e+00
3.0000000000000000e+00
3.0000000000000000e+00
3.0000000000000000e+00
3.0000000000000000e+00
3.0000000000000000e+00
3.0000000000000000e+00
3.0000000000000000e+00
3.0000000000000000e+00
3.0000000000000000e+00
3.0000000000000000e+00
3.0000000000000000e+00
3.0000000000000000e+00
3.0000000000000000e+00
3.0000000000000000e+00
3.0000000000000000e+00
3.0000000000000000e+00
3.0000000000000000e+00
3.0000000000000000e+00
3.0000000000000000e+00
3.0000000000000000e+00
3.0000000000000000e+00
3.0000000000000000e+00
3.0000000000000000e+00
3.0000000000000000e+00
3.0000000000000000e+00
3.0000000000000000e+00
3.0000000000000000e+00
3.0000000000000000e+00
3.0000000000000000e+00
3.0000000000000000e+00
3.0000000000000000e+00
3.0000000000000000e+00
3.0000000000000000e+00
3.0000000000000000e+00
3.0000000000000000e+00
3.0000000000000000e+00
3.0000000000000000e+00
3.0000000000000000e+00
3.0000000000000000e+00
3.0000000000000000e+00
3.0000000000000000e+00
3.0000000000000000e+00
3.0000000000000000e+00
3.0000000000000000e+00
3.0000000000000000e+00
3.0000000000000000e+00
3.0000000000000000e+00
3.0000000000000000e+00
3.0000000000000000e+00
3.0000000000000000e+00
3.0000000000000000e+00


