# vtk DataFile Version 2.0

ASCII

DATASET UNSTRUCTURED_GRID

POINTS 101 float

0.0000000000000000e+00 0.0000000000000000e+00 0.0000000000000000e+00
1.0000000000000001e-01 0.0000000000000000e+00 0.0000000000000000e+00
2.0000000000000001e-01 0.0000000000000000e+00 0.0000000000000000e+00
3.0000000000000004e-01 0.0000000000000000e+00 0.0000000000000000e+00
4.0000000000000002e-01 0.0000000000000000e+00 0.0000000000000000e+00
5.0000000000000000e-01 0.0000000000000000e+00 0.0000000000000000e+00
6.0000000000000009e-01 0.0000000000000000e+00 0.0000000000000000e+00
7.0000000000000007e-01 0.0000000000000000e+00 0.0000000000000000e+00
8.0000000000000004e-01 0.0000000000000000e+00 0.0000000000000000e+00
9.0000000000000002e-01 0.0000000000000000e+00 0.0000000000000000e+00
1.0000000000000000e+00 0.0000000000000000e+00 0.0000000000000000e+00
1.1000000000000001e+00 0.0000000000000000e+00 0.0000000000000000e+00
1.2000000000000002e+00 0.0000000000000000e+00 0.0000000000000000e+00
1.3000000000000000e+00 0.0000000000000000e+00 0.0000000000000000e+00
1.4000000000000001e+00 0.0000000000000000e+00 0.0000000000000000e+00
1.5000000000000000e+00 0.0000000000000000e+00 0.0000000000000000e+00
1.6000000000000001e+00 0.0000000000000000e+00 0.0000000000000000e+00
1.7000000000000002e+00 0.0000000000000000e+00 0.0000000000000000e+00
1.8000000000000000e+00 0.0000000000000000e+00 0.0000000000000000e+00
1.9000000000000001e+00 0.0000000000000000e+00 0.0000000000000000e+00
2.0000000000000000e+00 0.0000000000000000e+00 0.0000000000000000e+00
2.1000000000000001e+00 0.0000000000000000e+00 0.0000000000000000e+00
2.2000000000000002e+00 0.0000000000000000e+00 0.0000000000000000e+00
2.3000000000000003e+00 0.0000000000000000e+00 0.0000000000000000e+00
2.4000000000000004e+00 0.0000000000000000e+00 0.0000000000000000e+00
2.5000000000000000e+00 0.0000000000000000e+00 0.0000000000000000e+00
2.6000000000000001e+00 0.0000000000000000e+00 0.0000000000000000e+00
2.7000000000000002e+00 0.0000000000000000e+00 0.0000000000000000e+00
2.8000000000000003e+00 0.0000000000000000e+00 0.0000000000000000e+00
2.9000000000000004e+00 0.0000000000000000e+00 0.0000000000000000e+00
3.0000000000000000e+00 0.0000000000000000e+00 0.0000000000000000e+00
3.1000000000000001e+00 0.0000000000000000e+00 0.0000000000000000e+00
3.2000000000000002e+00 0.0000000000000000e+00 0.0000000000000000e+00
3.3000000000000003e+00 0.0000000000000000e+00 0.0000000000000000e+00
3.4000000000000004e+00 0.0000000000000000e+00 0.0000000000000000e+00
3.5000000000000000e+00 0.0000000000000000e+00 0.0000000000000000e+00
3.6000000000000001e+00 0.0000000000000000e+00 0.0000000000000000e+00
3.7000000000000002e+00 0.0000000000000000e+00 0.0000000000000000e+00
3.8000000000000003e+00 0.0000000000000000e+00 0.0000000000000000e+00
3.9000000000000004e+00 0.0000000000000000e+00 0.0000000000000000e+00
4.0000000000000000e+00 0.0000000000000000e+00 0.0000000000000000e+00
4.1000000000000005e+00 0.0000000000000000e+00 0.0000000000000000e+00
4.2000000000000002e+00 0.0000000000000000e+00 0.0000000000000000e+00
4.2999999999999998e+00 0.0000000000000000e+00 0.0000000000000000e+00
4.4000000000000004e+00 0.0000000000000000e+00 0.0000000000000000e+00
4.5000000000000000e+00 0.0000000000000000e+00 0.0000000000000000e+00
4.6000000000000005e+00 0.0000000000000000e+00 0.0000000000000000e+00
4.7000000000000002e+00 0.0000000000000000e+00 0.0000000000000000e+00
4.8000000000000007e+00 0.0000000000000000e+00 0.0000000000000000e+00
4.9000000000000004e+00 0.0000000000000000e+00 0.0000000000000000e+00
5.0000000000000000e+00 0.0000000000000000e+00 0.0000000000000000e+00
5.1000000000000005e+00 0.0000000000000000e+00 0.0000000000000000e+00
5.2000000000000002e+00 0.0000000000000000e+00 0.0000000000000000e+00
5.3000000000000007e+00 0.0000000000000000e+00 0.0000000000000000e+00
5.4000000000000004e+00 0.0000000000000000e+00 0.0000000000000000e+00
5.5000000000000000e+00 0.0000000000000000e+00 0.0000000000000000e+00
5.6000000000000005e+00 0.0000000000000000e+00 0.0000000000000000e+00
5.7000000000000002e+00 0.0000000000000000e+00 0.0000000000000000e+00
5.8000000000000007e+00 0.0000000000000000e+00 0.0000000000000000e+00
5.9000000000000004e+00 0.0000000000000000e+00 0.0000000000000000e+00
6.0000000000000000e+00 0.0000000000000000e+00 0.0000000000000000e+00
6.1000000000000005e+00 0.0000000000000000e+00 0.0000000000000000e+00
6.2000000000000002e+00 0.0000000000000000e+00 0.0000000000000000e+00
6.3000000000000007e+00 0.0000000000000000e+00 0.0000000000000000e+00
6.4000000000000004e+00 0.0000000000000000e+00 0.0000000000000000e+00
6.5000000000000000e+00 0.0000000000000000e+00 0.0000000000000000e+00
6.6000000000000005e+00 0.0000000000000000e+00 0.0000000000000000e+00
6.7000000000000002e+00 0.0000000000000000e+00 0.0000000000000000e+00
6.8000000000000007e+00 0.0000000000000000e+00 0.0000000000000000e+00
6.9000000000000004e+00 0.0000000000000000e+00 0.0000000000000000e+00
7.0000000000000000e+00 0.0000000000000000e+00 0.0000000000000000e+00
7.1000000000000005e+00 0.0000000000000000e+00 0.0000000000000000e+00
7.2000000000000002e+00 0.0000000000000000e+00 0.0000000000000000e+00
7.3000000000000007e+00 0.0000000000000000e+00 0.0000000000000000e+00
7.4000000000000004e+00 0.0000000000000000e+00 0.0000000000000000e+00
7.5000000000000000e+00 0.0000000000000000e+00 0.0000000000000000e+00
7.6000000000000005e+00 0.0000000000000000e+00 0.0000000000000000e+00
7.7000000000000002e+00 0.0000000000000000e+00 0.0000000000000000e+00
7.8000000000000007e+00 0.0000000000000000e+00 0.0000000000000000e+00
7.9000000000000004e+00 0.0000000000000000e+00 0.0000000000000000e+00
8.0000000000000000e+00 0.0000000000000000e+00 0.0000000000000000e+00
8.0999999999999996e+00 0.0000000000000000e+00 0.0000000000000000e+00
8.2000000000000011e+00 0.0000000000000000e+00 0.0000000000000000e+00
8.3000000000000007e+00 0.0000000000000000e+00 0.0000000000000000e+00
8.4000000000000004e+00 0.0000000000000000e+00 0.0000000000000000e+00
8.5000000000000000e+00 0.0000000000000000e+00 0.0000000000000000e+00
8.5999999999999996e+00 0.0000000000000000e+00 0.0000000000000000e+00
8.7000000000000011e+00 0.0000000000000000e+00 0.0000000000000000e+00
8.8000000000000007e+00 0.0000000000000000e+00 0.0000000000000000e+00
8.9000000000000004e+00 0.0000000000000000e+00 0.0000000000000000e+00
9.0000000000000000e+00 0.0000000000000000e+00 0.0000000000000000e+00
9.0999999999999996e+00 0.0000000000000000e+00 0.0000000000000000e+00
9.2000000000000011e+00 0.0000000000000000e+00 0.0000000000000000e+00
9.3000000000000007e+00 0.0000000000000000e+00 0.0000000000000000e+00
9.4000000000000004e+00 0.0000000000000000e+00 0.0000000000000000e+00
9.5000000000000000e+00 0.0000000000000000e+00 0.0000000000000000e+00
9.6000000000000014e+00 0.0000000000000000e+00 0.0000000000000000e+00
9.7000000000000011e+00 0.0000000000000000e+00 0.0000000000000000e+00
9.8000000000000007e+00 0.0000000000000000e+00 0.0000000000000000e+00
9.9000000000000004e+00 0.0000000000000000e+00 0.0000000000000000e+00
1.0000000000000000e+01 0.0000000000000000e+00 0.0000000000000000e+00

POINT_DATA 101

VECTORS velocity float
7.1077162968428773e+00 0.0000000000000000e+00 0.0000000000000000e+00
7.1080420179288550e+00 0.0000000000000000e+00 0.0000000000000000e+00
7.1083552779775090e+00 0.0000000000000000e+00 0.0000000000000000e+00
7.1086567365653597e+00 0.0000000000000000e+00 0.0000000000000000e+00
7.1089491752338176e+00 0.0000000000000000e+00 0.0000000000000000e+00
7.1092368136177519e+00 0.0000000000000000e+00 0.0000000000000000e+00
7.1095245681082613e+00 0.0000000000000000e+00 0.0000000000000000e+00
7.1098128542003911e+00 0.0000000000000000e+00 0.0000000000000000e+00
7.1100968601518844e+00 0.0000000000000000e+00 0.0000000000000000e+00
7.1103742021112373e+00 0.0000000000000000e+00 0.0000000000000000e+00
7.1106468206195297e+00 0.0000000000000000e+00 0.0000000000000000e+00
7.1109157335628979e+00 0.0000000000000000e+00 0.0000000000000000e+00
7.1111824393812713e+00 0.0000000000000000e+00 0.0000000000000000e+00
7.1114500126906579e+00 0.0000000000000000e+00 0.0000000000000000e+00
7.1117182637695988e+00 0.0000000000000000e+00 0.0000000000000000e+00
7.1119860950077758e+00 0.0000000000000000e+00 0.0000000000000000e+00
7.1122491932353009e+00 0.0000000000000000e+00 0.0000000000000000e+00
7.1125050656095530e+00 0.0000000000000000e+00 0.0000000000000000e+00
7.1127575716340194e+00 0.0000000000000000e+00 0.0000000000000000e+00
7.1130081233210127e+00 0.0000000000000000e+00 0.0000000000000000e+00
7.1132561239194771e+00 0.0000000000000000e+00 0.0000000000000000e+00
7.1135017868997688e+00 0.0000000000000000e+00 0.0000000000000000e+00
7.1137459126228784e+00 0.0000000000000000e+00 0.0000000000000000e+00
7.1139890572595039e+00 0.0000000000000000e+00 0.0000000000000000e+00
7.1142321600387755e+00 0.0000000000000000e+00 0.0000000000000000e+00
7.1144731306519748e+00 0.0000000000000000e+00 0.0000000000000000e+00
7.1147103885779002e+00 0.0000000000000000e+00 0.0000000000000000e+00
7.1149449462970251e+00 0.0000000000000000e+00 0.0000000000000000e+00
7.1151771204403627e+00 0.0000000000000000e+00 0.0000000000000000e+00
7.1154059919193910e+00 0.0000000000000000e+00 0.0000000000000000e+00
7.1156310661421234e+00 0.0000000000000000e+00 0.0000000000000000e+00
7.1158530897687875e+00 0.0000000000000000e+00 0.0000000000000000e+00
7.1160727406411697e+00 0.0000000000000000e+00 0.0000000000000000e+00
7.1162907683219290e+00 0.0000000000000000e+00 0.0000000000000000e+00
7.1165068413262320e+00 0.0000000000000000e+00 0.0000000000000000e+00
7.1167206532530241e+00 0.0000000000000000e+00 0.0000000000000000e+00
7.1169321076944465e+00 0.0000000000000000e+00 0.0000000000000000e+00
7.1171411626221479e+00 0.0000000000000000e+00 0.0000000000000000e+00
7.1173477273523993e+00 0.0000000000000000e+00 0.0000000000000000e+00
7.1175519706594503e+00 0.0000000000000000e+00 0.0000000000000000e+00
7.1177541211407895e+00 0.0000000000000000e+00 0.0000000000000000e+00
7.1179539808835059e+00 0.0000000000000000e+00 0.0000000000000000e+00
7.1181515206739565e+00 0.0000000000000000e+00 0.0000000000000000e+00
7.1183467223985044e+00 0.0000000000000000e+00 0.0000000000000000e+00
7.1185395746951805e+00 0.0000000000000000e+00 0.0000000000000000e+00
7.1187300698123082e+00 0.0000000000000000e+00 0.0000000000000000e+00
7.1189182021817921e+00 0.0000000000000000e+00 0.0000000000000000e+00
7.1191039668529301e+00 0.0000000000000000e+00 0.0000000000000000e+00
7.1192873607406533e+00 0.0000000000000000e+00 0.0000000000000000e+00
7.1194683809217771e+00 0.0000000000000000e+00 0.0000000000000000e+00
7.1196470239772154e+00 0.0000000000000000e+00 0.0000000000000000e+00
7.1198232876972503e+00 0.0000000000000000e+00 0.0000000000000000e+00
7.1199971690673287e+00 0.0000000000000000e+00 0.0000000000000000e+00
7.1201686650945417e+00 0.0000000000000000e+00 0.0000000000000000e+00
7.1203377735494175e+00 0.0000000000000000e+00 0.0000000000000000e+00
7.1205044921355398e+00 0.0000000000000000e+00 0.0000000000000000e+00
7.1206688177156519e+00 0.0000000000000000e+00 0.0000000000000000e+00
7.1208307478499835e+00 0.0000000000000000e+00 0.0000000000000000e+00
7.1209902808605561e+00 0.0000000000000000e+00 0.0000000000000000e+00
7.1211474141724507e+00 0.0000000000000000e+00 0.0000000000000000e+00
7.1213021451872711e+00 0.0000000000000000e+00 0.0000000000000000e+00
7.1214544720259596e+00 0.0000000000000000e+00 0.0000000000000000e+00
7.1216043926127979e+00 0.0000000000000000e+00 0.0000000000000000e+00
7.1217519043585016e+00 0.0000000000000000e+00 0.0000000000000000e+00
7.1218970051072299e+00 0.0000000000000000e+00 0.0000000000000000e+00
7.1220396927807501e+00 0.0000000000000000e+00 0.0000000000000000e+00
7.1221799652276552e+00 0.0000000000000000e+00 0.0000000000000000e+00
7.1223178205389024e+00 0.0000000000000000e+00 0.0000000000000000e+00
7.1224532567811289e+00 0.0000000000000000e+00 0.0000000000000000e+00
7.1225862719498894e+00 0.0000000000000000e+00 0.0000000000000000e+00
7.1227168641244107e+00 0.0000000000000000e+00 0.0000000000000000e+00
7.1228450314917309e+00 0.0000000000000000e+00 0.0000000000000000e+00
7.1229707722278146e+00 0.0000000000000000e+00 0.0000000000000000e+00
7.1230940845194324e+00 0.0000000000000000e+00 0.0000000000000000e+00
7.1232149666718056e+00 0.0000000000000000e+00 0.0000000000000000e+00
7.1233334168178564e+00 0.0000000000000000e+00 0.0000000000000000e+00
7.1234494334595091e+00 0.0000000000000000e+00 0.0000000000000000e+00
7.1235630147734446e+00 0.0000000000000000e+00 0.0000000000000000e+00
7.1236741593477735e+00 0.0000000000000000e+00 0.0000000000000000e+00
7.1237828660304441e+00 0.0000000000000000e+00 0.0000000000000000e+00
7.1238891330806942e+00 0.0000000000000000e+00 0.0000000000000000e+00
7.1239929590811295e+00 0.0000000000000000e+00 0.0000000000000000e+00
7.1240943424946686e+00 0.0000000000000000e+00 0.0000000000000000e+00
7.1241932822532545e+00 0.0000000000000000e+00 0.0000000000000000e+00
7.1242897768796993e+00 0.0000000000000000e+00 0.0000000000000000e+00
7.1243838248803408e+00 0.0000000000000000e+00 0.0000000000000000e+00
7.1244754253837543e+00 0.0000000000000000e+00 0.0000000000000000e+00
7.1245645762311742e+00 0.0000000000000000e+00 0.0000000000000000e+00
7.1246512764619316e+00 0.0000000000000000e+00 0.0000000000000000e+00
7.1247355248060948e+00 0.0000000000000000e+00 0.0000000000000000e+00
7.1248173223065496e+00 0.0000000000000000e+00 0.0000000000000000e+00
7.1248966672083496e+00 0.0000000000000000e+00 0.0000000000000000e+00
7.1249735582651770e+00 0.0000000000000000e+00 0.0000000000000000e+00
7.1250479928195078e+00 0.0000000000000000e+00 0.0000000000000000e+00
7.1251199764699136e+00 0.0000000000000000e+00 0.0000000000000000e+00
7.1251894874375603e+00 0.0000000000000000e+00 0.0000000000000000e+00
7.1252565831936883e+00 0.0000000000000000e+00 0.0000000000000000e+00
7.1253211019127676e+00 0.0000000000000000e+00 0.0000000000000000e+00
7.1253834861796124e+00 0.0000000000000000e+00 0.0000000000000000e+00
7.1254425143579496e+00 0.0000000000000000e+00 0.0000000000000000e+00
7.1255015425362869e+00 0.0000000000000000e+00 0.0000000000000000e+00


SCALARS pressure float
LOOKUP_TABLE default
7.8664314859971789e+00
7.7914654367053116e+00
7.7164993874134451e+00
7.6414919866495801e+00
7.5664267769547342e+00
7.4912859478902432e+00
7.4160444715925564e+00
7.3406714271471278e+00
7.2651554169590762e+00
7.1895165567626904e+00
7.1137741609629801e+00
7.0379268921895619e+00
6.9619706567835289e+00
6.8858981151869960e+00
6.8096934554399775e+00
6.7333533831987094e+00
6.6568831640562154e+00
6.5803060435955638e+00
6.5036426841267376e+00
6.4268830527787060e+00
6.3500181596180987e+00
6.2730488376619427e+00
6.1959755404765877e+00
6.1187959678945392e+00
6.0415080071770548e+00
5.9641072664973303e+00
5.8866027640887495e+00
5.8090062120270396e+00
5.7313179579752660e+00
5.6535377323356579e+00
5.5756708982082515e+00
5.4977227614252540e+00
5.4196927670789057e+00
5.3415787247520647e+00
5.2633775958658902e+00
5.1850910895695241e+00
5.1067223877599019e+00
5.0282741915721356e+00
4.9497487560254072e+00
4.8711484755407710e+00
4.7924743512244454e+00
4.7137264471505640e+00
4.6349067260930061e+00
4.5560170439979153e+00
4.4770591917212830e+00
4.3980349213411998e+00
4.3189459646427002e+00
4.2397940428702752e+00
4.1605808753584892e+00
4.0813081753915599e+00
4.0019776560376057e+00
3.9225910346310791e+00
3.8431500260841638e+00
3.7636563497841506e+00
3.6841117278870703e+00
3.6045178812236744e+00
3.5248765317779358e+00
3.4451894071072853e+00
3.3654582345052364e+00
3.2856847387105570e+00
3.2058706488893631e+00
3.1260176968662847e+00
3.0461276130213202e+00
2.9662021291828475e+00
2.8862429810631389e+00
2.8062519046176861e+00
2.7262306364531046e+00
2.6461809146406901e+00
2.5661044774930595e+00
2.4860030643667312e+00
2.4058784161233917e+00
2.3257322745479261e+00
2.2455663820162322e+00
2.1653824819204859e+00
2.0851823186683482e+00
2.0049676371436616e+00
1.9247401838902107e+00
1.8445017048969048e+00
1.7642539481494364e+00
1.6839986609339062e+00
1.6037375896378696e+00
1.5234724837199380e+00
1.4432050926712132e+00
1.3629371670558148e+00
1.2826704559783433e+00
1.2024067105051288e+00
1.1221476829238375e+00
1.0418951234304654e+00
9.6165078795824843e-01
8.8141642902551554e-01
8.0119379973515803e-01
7.2098464265806605e-01
6.4079071063040127e-01
5.6061375724347129e-01
4.8045554465155127e-01
4.0031779516717303e-01
3.2020235751858100e-01
2.4011072124238658e-01
1.6004536468799724e-01
8.0006046696254912e-02
0.0000000000000000e+00


SCALARS diameter float
LOOKUP_TABLE default
1.0007132220926105e+00
1.0007054105418149e+00
1.0006975878843065e+00
1.0006907757031231e+00
1.0006845344068462e+00
1.0006782925848559e+00
1.0006710434573480e+00
1.0006628341057877e+00
1.0006550063882889e+00
1.0006484381462826e+00
1.0006422569966895e+00
1.0006360799809448e+00
1.0006298226337338e+00
1.0006227940741963e+00
1.0006149354989897e+00
1.0006069782747635e+00
1.0005992832962638e+00
1.0005931610527057e+00
1.0005870158990033e+00
1.0005804779520255e+00
1.0005738502918295e+00
1.0005672768595770e+00
1.0005604484701847e+00
1.0005533546978538e+00
1.0005457883501863e+00
1.0005380561564736e+00
1.0005309709702672e+00
1.0005238642968115e+00
1.0005167587140862e+00
1.0005096907777498e+00
1.0005030474148819e+00
1.0004963973437957e+00
1.0004897350481030e+00
1.0004827963372733e+00
1.0004757421708954e+00
1.0004686880620068e+00
1.0004616334144902e+00
1.0004545780856200e+00
1.0004475220384650e+00
1.0004404590157649e+00
1.0004332853959532e+00
1.0004261075288359e+00
1.0004189264032712e+00
1.0004117425524717e+00
1.0004045561601933e+00
1.0003973673718212e+00
1.0003901763101615e+00
1.0003829831331814e+00
1.0003757879735211e+00
1.0003685905543440e+00
1.0003613912917064e+00
1.0003541900112645e+00
1.0003469868098571e+00
1.0003397819125603e+00
1.0003325752591250e+00
1.0003253668224836e+00
1.0003181567780086e+00
1.0003109453029844e+00
1.0003037321521133e+00
1.0002965174444705e+00
1.0002893013548748e+00
1.0002820838478650e+00
1.0002748648734534e+00
1.0002676446223988e+00
1.0002604231657803e+00
1.0002532004892588e+00
1.0002459766916618e+00
1.0002387517803528e+00
1.0002315257867325e+00
1.0002242987764061e+00
1.0002170708111284e+00
1.0002098419186800e+00
1.0002026121449303e+00
1.0001953815471210e+00
1.0001881501644030e+00
1.0001809180562902e+00
1.0001736852912184e+00
1.0001664518491122e+00
1.0001592179017569e+00
1.0001519832344143e+00
1.0001447480830350e+00
1.0001375124231795e+00
1.0001302763630151e+00
1.0001230398782450e+00
1.0001158029904522e+00
1.0001085658809763e+00
1.0001013284521245e+00
1.0000940908711056e+00
1.0000868533653746e+00
1.0000796156415384e+00
1.0000723778178842e+00
1.0000651392464994e+00
1.0000579011932793e+00
1.0000506627527508e+00
1.0000434245901275e+00
1.0000361865407599e+00
1.0000289486742238e+00
1.0000217110175804e+00
1.0000144736566776e+00
1.0000072366801431e+00
1.0000000000269105e+00


SCALARS iters float
LOOKUP_TABLE default
3.0000000000000000e+00
3.0000000000000000e+00
3.0000000000000000e+00
3.0000000000000000e+00
3.0000000000000000e+00
3.0000000000000000e+00
3.0000000000000000e+00
3.0000000000000000e+00
3.0000000000000000e+00
3.0000000000000000e+00
3.0000000000000000e+00
3.0000000000000000e+00
3.0000000000000000e+00
3.0000000000000000e+00
3.0000000000000000e+00
3.0000000000000000e+00
3.0000000000000000e+00
3.0000000000000000e+00
3.0000000000000000e+00
3.0000000000000000e+00
3.0000000000000000e+00
3.0000000000000000e+00
3.0000000000000000e+00
3.0000000000000000e+00
3.0000000000000000e+00
3.0000000000000000e+00
3.0000000000000000e+00
3.0000000000000000e+00
3.0000000000000000e+00
3.0000000000000000e+00
3.0000000000000000e+00
3.0000000000000000e+00
3.0000000000000000e+00
3.0000000000000000e+00
3.0000000000000000e+00
3.0000000000000000e+00
3.0000000000000000e+00
3.0000000000000000e+00
3.0000000000000000e+00
3.0000000000000000e+00
3.0000000000000000e+00
3.0000000000000000e+00
3.0000000000000000e+00
3.0000000000000000e+00
3.0000000000000000e+00
3.0000000000000000e+00
3.0000000000000000e+00
3.0000000000000000e+00
3.0000000000000000e+00
3.0000000000000000e+00
3.0000000000000000e+00
3.0000000000000000e+00
3.0000000000000000e+00
3.0000000000000000e+00
3.0000000000000000e+00
3.0000000000000000e+00
3.0000000000000000e+00
3.0000000000000000e+00
3.0000000000000000e+00
3.0000000000000000e+00
3.0000000000000000e+00
3.0000000000000000e+00
3.0000000000000000e+00
3.0000000000000000e+00
3.0000000000000000e+00
3.0000000000000000e+00
3.0000000000000000e+00
3.0000000000000000e+00
3.0000000000000000e+00
3.0000000000000000e+00
3.0000000000000000e+00
3.0000000000000000e+00
3.0000000000000000e+00
3.0000000000000000e+00
3.0000000000000000e+00
3.0000000000000000e+00
3.0000000000000000e+00
3.0000000000000000e+00
3.0000000000000000e+00
3.0000000000000000e+00
3.0000000000000000e+00
3.0000000000000000e+00
3.0000000000000000e+00
3.0000000000000000e+00
3.0000000000000000e+00
3.0000000000000000e+00
3.0000000000000000e+00
3.0000000000000000e+00
3.0000000000000000e+00
3.0000000000000000e+00
3.0000000000000000e+00
3.0000000000000000e+00
3.0000000000000000e+00
3.0000000000000000e+00
3.0000000000000000e+00
3.0000000000000000e+00
3.0000000000000000e+00
3.0000000000000000e+00
3.0000000000000000e+00
3.0000000000000000e+00
3.0000000000000000e+00


