# vtk DataFile Version 2.0

ASCII

DATASET UNSTRUCTURED_GRID

POINTS 101 float

0.0000000000000000e+00 0.0000000000000000e+00 0.0000000000000000e+00
1.0000000000000001e-01 0.0000000000000000e+00 0.0000000000000000e+00
2.0000000000000001e-01 0.0000000000000000e+00 0.0000000000000000e+00
3.0000000000000004e-01 0.0000000000000000e+00 0.0000000000000000e+00
4.0000000000000002e-01 0.0000000000000000e+00 0.0000000000000000e+00
5.0000000000000000e-01 0.0000000000000000e+00 0.0000000000000000e+00
6.0000000000000009e-01 0.0000000000000000e+00 0.0000000000000000e+00
7.0000000000000007e-01 0.0000000000000000e+00 0.0000000000000000e+00
8.0000000000000004e-01 0.0000000000000000e+00 0.0000000000000000e+00
9.0000000000000002e-01 0.0000000000000000e+00 0.0000000000000000e+00
1.0000000000000000e+00 0.0000000000000000e+00 0.0000000000000000e+00
1.1000000000000001e+00 0.0000000000000000e+00 0.0000000000000000e+00
1.2000000000000002e+00 0.0000000000000000e+00 0.0000000000000000e+00
1.3000000000000000e+00 0.0000000000000000e+00 0.0000000000000000e+00
1.4000000000000001e+00 0.0000000000000000e+00 0.0000000000000000e+00
1.5000000000000000e+00 0.0000000000000000e+00 0.0000000000000000e+00
1.6000000000000001e+00 0.0000000000000000e+00 0.0000000000000000e+00
1.7000000000000002e+00 0.0000000000000000e+00 0.0000000000000000e+00
1.8000000000000000e+00 0.0000000000000000e+00 0.0000000000000000e+00
1.9000000000000001e+00 0.0000000000000000e+00 0.0000000000000000e+00
2.0000000000000000e+00 0.0000000000000000e+00 0.0000000000000000e+00
2.1000000000000001e+00 0.0000000000000000e+00 0.0000000000000000e+00
2.2000000000000002e+00 0.0000000000000000e+00 0.0000000000000000e+00
2.3000000000000003e+00 0.0000000000000000e+00 0.0000000000000000e+00
2.4000000000000004e+00 0.0000000000000000e+00 0.0000000000000000e+00
2.5000000000000000e+00 0.0000000000000000e+00 0.0000000000000000e+00
2.6000000000000001e+00 0.0000000000000000e+00 0.0000000000000000e+00
2.7000000000000002e+00 0.0000000000000000e+00 0.0000000000000000e+00
2.8000000000000003e+00 0.0000000000000000e+00 0.0000000000000000e+00
2.9000000000000004e+00 0.0000000000000000e+00 0.0000000000000000e+00
3.0000000000000000e+00 0.0000000000000000e+00 0.0000000000000000e+00
3.1000000000000001e+00 0.0000000000000000e+00 0.0000000000000000e+00
3.2000000000000002e+00 0.0000000000000000e+00 0.0000000000000000e+00
3.3000000000000003e+00 0.0000000000000000e+00 0.0000000000000000e+00
3.4000000000000004e+00 0.0000000000000000e+00 0.0000000000000000e+00
3.5000000000000000e+00 0.0000000000000000e+00 0.0000000000000000e+00
3.6000000000000001e+00 0.0000000000000000e+00 0.0000000000000000e+00
3.7000000000000002e+00 0.0000000000000000e+00 0.0000000000000000e+00
3.8000000000000003e+00 0.0000000000000000e+00 0.0000000000000000e+00
3.9000000000000004e+00 0.0000000000000000e+00 0.0000000000000000e+00
4.0000000000000000e+00 0.0000000000000000e+00 0.0000000000000000e+00
4.1000000000000005e+00 0.0000000000000000e+00 0.0000000000000000e+00
4.2000000000000002e+00 0.0000000000000000e+00 0.0000000000000000e+00
4.2999999999999998e+00 0.0000000000000000e+00 0.0000000000000000e+00
4.4000000000000004e+00 0.0000000000000000e+00 0.0000000000000000e+00
4.5000000000000000e+00 0.0000000000000000e+00 0.0000000000000000e+00
4.6000000000000005e+00 0.0000000000000000e+00 0.0000000000000000e+00
4.7000000000000002e+00 0.0000000000000000e+00 0.0000000000000000e+00
4.8000000000000007e+00 0.0000000000000000e+00 0.0000000000000000e+00
4.9000000000000004e+00 0.0000000000000000e+00 0.0000000000000000e+00
5.0000000000000000e+00 0.0000000000000000e+00 0.0000000000000000e+00
5.1000000000000005e+00 0.0000000000000000e+00 0.0000000000000000e+00
5.2000000000000002e+00 0.0000000000000000e+00 0.0000000000000000e+00
5.3000000000000007e+00 0.0000000000000000e+00 0.0000000000000000e+00
5.4000000000000004e+00 0.0000000000000000e+00 0.0000000000000000e+00
5.5000000000000000e+00 0.0000000000000000e+00 0.0000000000000000e+00
5.6000000000000005e+00 0.0000000000000000e+00 0.0000000000000000e+00
5.7000000000000002e+00 0.0000000000000000e+00 0.0000000000000000e+00
5.8000000000000007e+00 0.0000000000000000e+00 0.0000000000000000e+00
5.9000000000000004e+00 0.0000000000000000e+00 0.0000000000000000e+00
6.0000000000000000e+00 0.0000000000000000e+00 0.0000000000000000e+00
6.1000000000000005e+00 0.0000000000000000e+00 0.0000000000000000e+00
6.2000000000000002e+00 0.0000000000000000e+00 0.0000000000000000e+00
6.3000000000000007e+00 0.0000000000000000e+00 0.0000000000000000e+00
6.4000000000000004e+00 0.0000000000000000e+00 0.0000000000000000e+00
6.5000000000000000e+00 0.0000000000000000e+00 0.0000000000000000e+00
6.6000000000000005e+00 0.0000000000000000e+00 0.0000000000000000e+00
6.7000000000000002e+00 0.0000000000000000e+00 0.0000000000000000e+00
6.8000000000000007e+00 0.0000000000000000e+00 0.0000000000000000e+00
6.9000000000000004e+00 0.0000000000000000e+00 0.0000000000000000e+00
7.0000000000000000e+00 0.0000000000000000e+00 0.0000000000000000e+00
7.1000000000000005e+00 0.0000000000000000e+00 0.0000000000000000e+00
7.2000000000000002e+00 0.0000000000000000e+00 0.0000000000000000e+00
7.3000000000000007e+00 0.0000000000000000e+00 0.0000000000000000e+00
7.4000000000000004e+00 0.0000000000000000e+00 0.0000000000000000e+00
7.5000000000000000e+00 0.0000000000000000e+00 0.0000000000000000e+00
7.6000000000000005e+00 0.0000000000000000e+00 0.0000000000000000e+00
7.7000000000000002e+00 0.0000000000000000e+00 0.0000000000000000e+00
7.8000000000000007e+00 0.0000000000000000e+00 0.0000000000000000e+00
7.9000000000000004e+00 0.0000000000000000e+00 0.0000000000000000e+00
8.0000000000000000e+00 0.0000000000000000e+00 0.0000000000000000e+00
8.0999999999999996e+00 0.0000000000000000e+00 0.0000000000000000e+00
8.2000000000000011e+00 0.0000000000000000e+00 0.0000000000000000e+00
8.3000000000000007e+00 0.0000000000000000e+00 0.0000000000000000e+00
8.4000000000000004e+00 0.0000000000000000e+00 0.0000000000000000e+00
8.5000000000000000e+00 0.0000000000000000e+00 0.0000000000000000e+00
8.5999999999999996e+00 0.0000000000000000e+00 0.0000000000000000e+00
8.7000000000000011e+00 0.0000000000000000e+00 0.0000000000000000e+00
8.8000000000000007e+00 0.0000000000000000e+00 0.0000000000000000e+00
8.9000000000000004e+00 0.0000000000000000e+00 0.0000000000000000e+00
9.0000000000000000e+00 0.0000000000000000e+00 0.0000000000000000e+00
9.0999999999999996e+00 0.0000000000000000e+00 0.0000000000000000e+00
9.2000000000000011e+00 0.0000000000000000e+00 0.0000000000000000e+00
9.3000000000000007e+00 0.0000000000000000e+00 0.0000000000000000e+00
9.4000000000000004e+00 0.0000000000000000e+00 0.0000000000000000e+00
9.5000000000000000e+00 0.0000000000000000e+00 0.0000000000000000e+00
9.6000000000000014e+00 0.0000000000000000e+00 0.0000000000000000e+00
9.7000000000000011e+00 0.0000000000000000e+00 0.0000000000000000e+00
9.8000000000000007e+00 0.0000000000000000e+00 0.0000000000000000e+00
9.9000000000000004e+00 0.0000000000000000e+00 0.0000000000000000e+00
1.0000000000000000e+01 0.0000000000000000e+00 0.0000000000000000e+00

POINT_DATA 101

VECTORS velocity float
6.5883701224022699e+00 0.0000000000000000e+00 0.0000000000000000e+00
6.5882037825099964e+00 0.0000000000000000e+00 0.0000000000000000e+00
6.5880422322769663e+00 0.0000000000000000e+00 0.0000000000000000e+00
6.5878819125948889e+00 0.0000000000000000e+00 0.0000000000000000e+00
6.5877224953258766e+00 0.0000000000000000e+00 0.0000000000000000e+00
6.5875658273888229e+00 0.0000000000000000e+00 0.0000000000000000e+00
6.5874152264296537e+00 0.0000000000000000e+00 0.0000000000000000e+00
6.5872704908345208e+00 0.0000000000000000e+00 0.0000000000000000e+00
6.5871264627223951e+00 0.0000000000000000e+00 0.0000000000000000e+00
6.5869801711326694e+00 0.0000000000000000e+00 0.0000000000000000e+00
6.5868334432677216e+00 0.0000000000000000e+00 0.0000000000000000e+00
6.5866873695544097e+00 0.0000000000000000e+00 0.0000000000000000e+00
6.5865431496450073e+00 0.0000000000000000e+00 0.0000000000000000e+00
6.5864035089821931e+00 0.0000000000000000e+00 0.0000000000000000e+00
6.5862686742933070e+00 0.0000000000000000e+00 0.0000000000000000e+00
6.5861376928582391e+00 0.0000000000000000e+00 0.0000000000000000e+00
6.5860068053258356e+00 0.0000000000000000e+00 0.0000000000000000e+00
6.5858736997722609e+00 0.0000000000000000e+00 0.0000000000000000e+00
6.5857414213713863e+00 0.0000000000000000e+00 0.0000000000000000e+00
6.5856111276325953e+00 0.0000000000000000e+00 0.0000000000000000e+00
6.5854824346815795e+00 0.0000000000000000e+00 0.0000000000000000e+00
6.5853557797797855e+00 0.0000000000000000e+00 0.0000000000000000e+00
6.5852318662544400e+00 0.0000000000000000e+00 0.0000000000000000e+00
6.5851111492762815e+00 0.0000000000000000e+00 0.0000000000000000e+00
6.5849940260220272e+00 0.0000000000000000e+00 0.0000000000000000e+00
6.5848783893936726e+00 0.0000000000000000e+00 0.0000000000000000e+00
6.5847635187533688e+00 0.0000000000000000e+00 0.0000000000000000e+00
6.5846501831613597e+00 0.0000000000000000e+00 0.0000000000000000e+00
6.5845386770854919e+00 0.0000000000000000e+00 0.0000000000000000e+00
6.5844282678588169e+00 0.0000000000000000e+00 0.0000000000000000e+00
6.5843185747485906e+00 0.0000000000000000e+00 0.0000000000000000e+00
6.5842102010217562e+00 0.0000000000000000e+00 0.0000000000000000e+00
6.5841038991474585e+00 0.0000000000000000e+00 0.0000000000000000e+00
6.5840004584982914e+00 0.0000000000000000e+00 0.0000000000000000e+00
6.5838995043837629e+00 0.0000000000000000e+00 0.0000000000000000e+00
6.5838006991710598e+00 0.0000000000000000e+00 0.0000000000000000e+00
6.5837039569299911e+00 0.0000000000000000e+00 0.0000000000000000e+00
6.5836091646082018e+00 0.0000000000000000e+00 0.0000000000000000e+00
6.5835164156172894e+00 0.0000000000000000e+00 0.0000000000000000e+00
6.5834252482390987e+00 0.0000000000000000e+00 0.0000000000000000e+00
6.5833353408984232e+00 0.0000000000000000e+00 0.0000000000000000e+00
6.5832471068349783e+00 0.0000000000000000e+00 0.0000000000000000e+00
6.5831606272145855e+00 0.0000000000000000e+00 0.0000000000000000e+00
6.5830759521730426e+00 0.0000000000000000e+00 0.0000000000000000e+00
6.5829931131808497e+00 0.0000000000000000e+00 0.0000000000000000e+00
6.5829121301645435e+00 0.0000000000000000e+00 0.0000000000000000e+00
6.5828330161312643e+00 0.0000000000000000e+00 0.0000000000000000e+00
6.5827557794386902e+00 0.0000000000000000e+00 0.0000000000000000e+00
6.5826804268379222e+00 0.0000000000000000e+00 0.0000000000000000e+00
6.5826069632976401e+00 0.0000000000000000e+00 0.0000000000000000e+00
6.5825353921315282e+00 0.0000000000000000e+00 0.0000000000000000e+00
6.5824657169594509e+00 0.0000000000000000e+00 0.0000000000000000e+00
6.5823979403781667e+00 0.0000000000000000e+00 0.0000000000000000e+00
6.5823320646388019e+00 0.0000000000000000e+00 0.0000000000000000e+00
6.5822680924218142e+00 0.0000000000000000e+00 0.0000000000000000e+00
6.5822060262335906e+00 0.0000000000000000e+00 0.0000000000000000e+00
6.5821458676141038e+00 0.0000000000000000e+00 0.0000000000000000e+00
6.5820876186622161e+00 0.0000000000000000e+00 0.0000000000000000e+00
6.5820312821857145e+00 0.0000000000000000e+00 0.0000000000000000e+00
6.5819768600461304e+00 0.0000000000000000e+00 0.0000000000000000e+00
6.5819243539824637e+00 0.0000000000000000e+00 0.0000000000000000e+00
6.5818737662372770e+00 0.0000000000000000e+00 0.0000000000000000e+00
6.5818250988154974e+00 0.0000000000000000e+00 0.0000000000000000e+00
6.5817783531852072e+00 0.0000000000000000e+00 0.0000000000000000e+00
6.5817335311237075e+00 0.0000000000000000e+00 0.0000000000000000e+00
6.5816906344214212e+00 0.0000000000000000e+00 0.0000000000000000e+00
6.5816496647030780e+00 0.0000000000000000e+00 0.0000000000000000e+00
6.5816106237622760e+00 0.0000000000000000e+00 0.0000000000000000e+00
6.5815735132859263e+00 0.0000000000000000e+00 0.0000000000000000e+00
6.5815383347944056e+00 0.0000000000000000e+00 0.0000000000000000e+00
6.5815050898061722e+00 0.0000000000000000e+00 0.0000000000000000e+00
6.5814737798526011e+00 0.0000000000000000e+00 0.0000000000000000e+00
6.5814444063792825e+00 0.0000000000000000e+00 0.0000000000000000e+00
6.5814169707928674e+00 0.0000000000000000e+00 0.0000000000000000e+00
6.5813914745018343e+00 0.0000000000000000e+00 0.0000000000000000e+00
6.5813679186715248e+00 0.0000000000000000e+00 0.0000000000000000e+00
6.5813463047885943e+00 0.0000000000000000e+00 0.0000000000000000e+00
6.5813266338290326e+00 0.0000000000000000e+00 0.0000000000000000e+00
6.5813089072086326e+00 0.0000000000000000e+00 0.0000000000000000e+00
6.5812931264697312e+00 0.0000000000000000e+00 0.0000000000000000e+00
6.5812792923902190e+00 0.0000000000000000e+00 0.0000000000000000e+00
6.5812674060224641e+00 0.0000000000000000e+00 0.0000000000000000e+00
6.5812574682997758e+00 0.0000000000000000e+00 0.0000000000000000e+00
6.5812494807318238e+00 0.0000000000000000e+00 0.0000000000000000e+00
6.5812434439507923e+00 0.0000000000000000e+00 0.0000000000000000e+00
6.5812393583353446e+00 0.0000000000000000e+00 0.0000000000000000e+00
6.5812372249662392e+00 0.0000000000000000e+00 0.0000000000000000e+00
6.5812370442209414e+00 0.0000000000000000e+00 0.0000000000000000e+00
6.5812388172667200e+00 0.0000000000000000e+00 0.0000000000000000e+00
6.5812425447420972e+00 0.0000000000000000e+00 0.0000000000000000e+00
6.5812482288310443e+00 0.0000000000000000e+00 0.0000000000000000e+00
6.5812558697832246e+00 0.0000000000000000e+00 0.0000000000000000e+00
6.5812654664407892e+00 0.0000000000000000e+00 0.0000000000000000e+00
6.5812770231366162e+00 0.0000000000000000e+00 0.0000000000000000e+00
6.5812905321222139e+00 0.0000000000000000e+00 0.0000000000000000e+00
6.5813060131840482e+00 0.0000000000000000e+00 0.0000000000000000e+00
6.5813234150847801e+00 0.0000000000000000e+00 0.0000000000000000e+00
6.5813428770880371e+00 0.0000000000000000e+00 0.0000000000000000e+00
6.5813640260538477e+00 0.0000000000000000e+00 0.0000000000000000e+00
6.5813878646236574e+00 0.0000000000000000e+00 0.0000000000000000e+00
6.5814117031934671e+00 0.0000000000000000e+00 0.0000000000000000e+00


SCALARS pressure float
LOOKUP_TABLE default
5.0309592039710607e+00
4.9794013893840079e+00
4.9278435747969551e+00
4.8763046402622265e+00
4.8248075224540621e+00
4.7733609774555683e+00
4.7219592303695181e+00
4.6705853472859218e+00
4.6192345403121466e+00
4.5679282704556234e+00
4.5166862067104150e+00
4.4655054775531937e+00
4.4143796450536428e+00
4.3633007649450626e+00
4.3122535782089892e+00
4.2612319545295048e+00
4.2102378067831445e+00
4.1592883151090820e+00
4.1083988049124303e+00
4.0575596744418272e+00
4.0067623232696503e+00
3.9560053745169124e+00
3.9052857473579929e+00
3.8545984917198406e+00
3.8039392013074975e+00
3.7533046382717536e+00
3.7027032669134012e+00
3.6521402011606230e+00
3.6016129184541419e+00
3.5511187488951692e+00
3.5006596798158340e+00
3.4502375103231979e+00
3.3998494950873273e+00
3.3494908200052822e+00
3.2991558837109256e+00
3.2488441582099004e+00
3.1985564978961549e+00
3.1482930273756735e+00
3.0980537770187597e+00
3.0478377912551116e+00
2.9976463933399171e+00
2.9474809724750601e+00
2.8973395460620033e+00
2.8472206075030297e+00
2.7971229317328112e+00
2.7470454613297974e+00
2.6969872405157038e+00
2.6469473747385375e+00
2.5969250085403961e+00
2.5469193051881693e+00
2.4969294414883350e+00
2.4469546058062406e+00
2.3969939885327047e+00
2.3470467853435002e+00
2.2971121951716342e+00
2.2471894160235171e+00
2.1972776464226911e+00
2.1473760895323051e+00
2.0974839474834432e+00
2.0476004189248589e+00
1.9977247058440444e+00
1.9478560119143788e+00
1.8979935391273439e+00
1.8481364901316604e+00
1.7982840703220075e+00
1.7484354846156860e+00
1.6985899378237757e+00
1.6487466355852103e+00
1.5989047831261183e+00
1.5490635861447259e+00
1.4992222513632651e+00
1.4493799859369276e+00
1.3995359972111159e+00
1.3496894930930616e+00
1.2998396819644860e+00
1.2499857724811916e+00
1.2001269746053140e+00
1.1502624973850559e+00
1.1003915520315395e+00
1.0505133485788025e+00
1.0006270962728310e+00
9.5073200770104271e-01
9.0082729537852135e-01
8.5091217248911188e-01
8.0098584997491928e-01
7.5104754219173653e-01
7.0109646586539986e-01
6.5113183538130592e-01
6.0115286767176812e-01
5.5115877707787786e-01
5.0114877977502370e-01
4.5112208574376989e-01
4.0107791183506619e-01
3.5101548386016496e-01
3.0093400458835973e-01
2.5083272766496112e-01
2.0071079013255066e-01
1.5056763495818254e-01
1.0040188474354785e-01
5.0214365544120745e-02
0.0000000000000000e+00


SCALARS diameter float
LOOKUP_TABLE default
1.0004559389908343e+00
1.0004508196480080e+00
1.0004454122503916e+00
1.0004408722429794e+00
1.0004367487015100e+00
1.0004326265126393e+00
1.0004275099919115e+00
1.0004213978356289e+00
1.0004156417696091e+00
1.0004113077202759e+00
1.0004074125310267e+00
1.0004035216775702e+00
1.0003995711134110e+00
1.0003949637144685e+00
1.0003895089887536e+00
1.0003838945386594e+00
1.0003785040054054e+00
1.0003745527320425e+00
1.0003706321671071e+00
1.0003664170936988e+00
1.0003621446359936e+00
1.0003578844655150e+00
1.0003533369669644e+00
1.0003485721011189e+00
1.0003434421451503e+00
1.0003383740733420e+00
1.0003337970679698e+00
1.0003291920289159e+00
1.0003245882980918e+00
1.0003200175555098e+00
1.0003158204633380e+00
1.0003116166390515e+00
1.0003073845116677e+00
1.0003028228573150e+00
1.0002981352275990e+00
1.0002934473155267e+00
1.0002887586527311e+00
1.0002840692032038e+00
1.0002793788527022e+00
1.0002747018350455e+00
1.0002702423134424e+00
1.0002657786251474e+00
1.0002613118825789e+00
1.0002568426111420e+00
1.0002523710023732e+00
1.0002478972140654e+00
1.0002434213665063e+00
1.0002389436066743e+00
1.0002344640279497e+00
1.0002299823929335e+00
1.0002254990862429e+00
1.0002210139678214e+00
1.0002165271069769e+00
1.0002120387012914e+00
1.0002075486971185e+00
1.0002030570594798e+00
1.0001985639619198e+00
1.0001940696007459e+00
1.0001895736883986e+00
1.0001850763397531e+00
1.0001805777131623e+00
1.0001760777784143e+00
1.0001715764915908e+00
1.0001670740298627e+00
1.0001625704619359e+00
1.0001580657618838e+00
1.0001535600247575e+00
1.0001490532505959e+00
1.0001445454576148e+00
1.0001400367118958e+00
1.0001355270669856e+00
1.0001310165476345e+00
1.0001265051954193e+00
1.0001219930557175e+00
1.0001174801599033e+00
1.0001129665641111e+00
1.0001084523216619e+00
1.0001039374059884e+00
1.0000994219992763e+00
1.0000949058349071e+00
1.0000903891815993e+00
1.0000858720316981e+00
1.0000813544562883e+00
1.0000768364033419e+00
1.0000723178398185e+00
1.0000677991255331e+00
1.0000632801050668e+00
1.0000587609081131e+00
1.0000542415859961e+00
1.0000497219785618e+00
1.0000452021552630e+00
1.0000406816441654e+00
1.0000361615834064e+00
1.0000316409795091e+00
1.0000271205494708e+00
1.0000226001450394e+00
1.0000180798067584e+00
1.0000135595650301e+00
1.0000090394624772e+00
1.0000045195969647e+00
1.0000000000278169e+00


SCALARS iters float
LOOKUP_TABLE default
4.0000000000000000e+00
4.0000000000000000e+00
4.0000000000000000e+00
4.0000000000000000e+00
4.0000000000000000e+00
4.0000000000000000e+00
4.0000000000000000e+00
4.0000000000000000e+00
4.0000000000000000e+00
4.0000000000000000e+00
4.0000000000000000e+00
4.0000000000000000e+00
4.0000000000000000e+00
4.0000000000000000e+00
4.0000000000000000e+00
4.0000000000000000e+00
4.0000000000000000e+00
4.0000000000000000e+00
4.0000000000000000e+00
4.0000000000000000e+00
4.0000000000000000e+00
4.0000000000000000e+00
4.0000000000000000e+00
4.0000000000000000e+00
4.0000000000000000e+00
4.0000000000000000e+00
4.0000000000000000e+00
4.0000000000000000e+00
4.0000000000000000e+00
4.0000000000000000e+00
4.0000000000000000e+00
4.0000000000000000e+00
4.0000000000000000e+00
4.0000000000000000e+00
4.0000000000000000e+00
4.0000000000000000e+00
4.0000000000000000e+00
4.0000000000000000e+00
4.0000000000000000e+00
4.0000000000000000e+00
4.0000000000000000e+00
4.0000000000000000e+00
4.0000000000000000e+00
4.0000000000000000e+00
4.0000000000000000e+00
4.0000000000000000e+00
4.0000000000000000e+00
4.0000000000000000e+00
4.0000000000000000e+00
4.0000000000000000e+00
4.0000000000000000e+00
4.0000000000000000e+00
4.0000000000000000e+00
4.0000000000000000e+00
4.0000000000000000e+00
4.0000000000000000e+00
4.0000000000000000e+00
4.0000000000000000e+00
4.0000000000000000e+00
4.0000000000000000e+00
4.0000000000000000e+00
4.0000000000000000e+00
4.0000000000000000e+00
4.0000000000000000e+00
4.0000000000000000e+00
4.0000000000000000e+00
4.0000000000000000e+00
4.0000000000000000e+00
4.0000000000000000e+00
4.0000000000000000e+00
4.0000000000000000e+00
4.0000000000000000e+00
4.0000000000000000e+00
4.0000000000000000e+00
4.0000000000000000e+00
4.0000000000000000e+00
4.0000000000000000e+00
4.0000000000000000e+00
4.0000000000000000e+00
4.0000000000000000e+00
4.0000000000000000e+00
4.0000000000000000e+00
4.0000000000000000e+00
4.0000000000000000e+00
4.0000000000000000e+00
4.0000000000000000e+00
4.0000000000000000e+00
4.0000000000000000e+00
4.0000000000000000e+00
4.0000000000000000e+00
4.0000000000000000e+00
4.0000000000000000e+00
4.0000000000000000e+00
4.0000000000000000e+00
4.0000000000000000e+00
4.0000000000000000e+00
4.0000000000000000e+00
4.0000000000000000e+00
4.0000000000000000e+00
4.0000000000000000e+00
4.0000000000000000e+00


