# vtk DataFile Version 2.0

ASCII

DATASET UNSTRUCTURED_GRID

POINTS 101 float

0.0000000000000000e+00 0.0000000000000000e+00 0.0000000000000000e+00
1.0000000000000001e-01 0.0000000000000000e+00 0.0000000000000000e+00
2.0000000000000001e-01 0.0000000000000000e+00 0.0000000000000000e+00
3.0000000000000004e-01 0.0000000000000000e+00 0.0000000000000000e+00
4.0000000000000002e-01 0.0000000000000000e+00 0.0000000000000000e+00
5.0000000000000000e-01 0.0000000000000000e+00 0.0000000000000000e+00
6.0000000000000009e-01 0.0000000000000000e+00 0.0000000000000000e+00
7.0000000000000007e-01 0.0000000000000000e+00 0.0000000000000000e+00
8.0000000000000004e-01 0.0000000000000000e+00 0.0000000000000000e+00
9.0000000000000002e-01 0.0000000000000000e+00 0.0000000000000000e+00
1.0000000000000000e+00 0.0000000000000000e+00 0.0000000000000000e+00
1.1000000000000001e+00 0.0000000000000000e+00 0.0000000000000000e+00
1.2000000000000002e+00 0.0000000000000000e+00 0.0000000000000000e+00
1.3000000000000000e+00 0.0000000000000000e+00 0.0000000000000000e+00
1.4000000000000001e+00 0.0000000000000000e+00 0.0000000000000000e+00
1.5000000000000000e+00 0.0000000000000000e+00 0.0000000000000000e+00
1.6000000000000001e+00 0.0000000000000000e+00 0.0000000000000000e+00
1.7000000000000002e+00 0.0000000000000000e+00 0.0000000000000000e+00
1.8000000000000000e+00 0.0000000000000000e+00 0.0000000000000000e+00
1.9000000000000001e+00 0.0000000000000000e+00 0.0000000000000000e+00
2.0000000000000000e+00 0.0000000000000000e+00 0.0000000000000000e+00
2.1000000000000001e+00 0.0000000000000000e+00 0.0000000000000000e+00
2.2000000000000002e+00 0.0000000000000000e+00 0.0000000000000000e+00
2.3000000000000003e+00 0.0000000000000000e+00 0.0000000000000000e+00
2.4000000000000004e+00 0.0000000000000000e+00 0.0000000000000000e+00
2.5000000000000000e+00 0.0000000000000000e+00 0.0000000000000000e+00
2.6000000000000001e+00 0.0000000000000000e+00 0.0000000000000000e+00
2.7000000000000002e+00 0.0000000000000000e+00 0.0000000000000000e+00
2.8000000000000003e+00 0.0000000000000000e+00 0.0000000000000000e+00
2.9000000000000004e+00 0.0000000000000000e+00 0.0000000000000000e+00
3.0000000000000000e+00 0.0000000000000000e+00 0.0000000000000000e+00
3.1000000000000001e+00 0.0000000000000000e+00 0.0000000000000000e+00
3.2000000000000002e+00 0.0000000000000000e+00 0.0000000000000000e+00
3.3000000000000003e+00 0.0000000000000000e+00 0.0000000000000000e+00
3.4000000000000004e+00 0.0000000000000000e+00 0.0000000000000000e+00
3.5000000000000000e+00 0.0000000000000000e+00 0.0000000000000000e+00
3.6000000000000001e+00 0.0000000000000000e+00 0.0000000000000000e+00
3.7000000000000002e+00 0.0000000000000000e+00 0.0000000000000000e+00
3.8000000000000003e+00 0.0000000000000000e+00 0.0000000000000000e+00
3.9000000000000004e+00 0.0000000000000000e+00 0.0000000000000000e+00
4.0000000000000000e+00 0.0000000000000000e+00 0.0000000000000000e+00
4.1000000000000005e+00 0.0000000000000000e+00 0.0000000000000000e+00
4.2000000000000002e+00 0.0000000000000000e+00 0.0000000000000000e+00
4.2999999999999998e+00 0.0000000000000000e+00 0.0000000000000000e+00
4.4000000000000004e+00 0.0000000000000000e+00 0.0000000000000000e+00
4.5000000000000000e+00 0.0000000000000000e+00 0.0000000000000000e+00
4.6000000000000005e+00 0.0000000000000000e+00 0.0000000000000000e+00
4.7000000000000002e+00 0.0000000000000000e+00 0.0000000000000000e+00
4.8000000000000007e+00 0.0000000000000000e+00 0.0000000000000000e+00
4.9000000000000004e+00 0.0000000000000000e+00 0.0000000000000000e+00
5.0000000000000000e+00 0.0000000000000000e+00 0.0000000000000000e+00
5.1000000000000005e+00 0.0000000000000000e+00 0.0000000000000000e+00
5.2000000000000002e+00 0.0000000000000000e+00 0.0000000000000000e+00
5.3000000000000007e+00 0.0000000000000000e+00 0.0000000000000000e+00
5.4000000000000004e+00 0.0000000000000000e+00 0.0000000000000000e+00
5.5000000000000000e+00 0.0000000000000000e+00 0.0000000000000000e+00
5.6000000000000005e+00 0.0000000000000000e+00 0.0000000000000000e+00
5.7000000000000002e+00 0.0000000000000000e+00 0.0000000000000000e+00
5.8000000000000007e+00 0.0000000000000000e+00 0.0000000000000000e+00
5.9000000000000004e+00 0.0000000000000000e+00 0.0000000000000000e+00
6.0000000000000000e+00 0.0000000000000000e+00 0.0000000000000000e+00
6.1000000000000005e+00 0.0000000000000000e+00 0.0000000000000000e+00
6.2000000000000002e+00 0.0000000000000000e+00 0.0000000000000000e+00
6.3000000000000007e+00 0.0000000000000000e+00 0.0000000000000000e+00
6.4000000000000004e+00 0.0000000000000000e+00 0.0000000000000000e+00
6.5000000000000000e+00 0.0000000000000000e+00 0.0000000000000000e+00
6.6000000000000005e+00 0.0000000000000000e+00 0.0000000000000000e+00
6.7000000000000002e+00 0.0000000000000000e+00 0.0000000000000000e+00
6.8000000000000007e+00 0.0000000000000000e+00 0.0000000000000000e+00
6.9000000000000004e+00 0.0000000000000000e+00 0.0000000000000000e+00
7.0000000000000000e+00 0.0000000000000000e+00 0.0000000000000000e+00
7.1000000000000005e+00 0.0000000000000000e+00 0.0000000000000000e+00
7.2000000000000002e+00 0.0000000000000000e+00 0.0000000000000000e+00
7.3000000000000007e+00 0.0000000000000000e+00 0.0000000000000000e+00
7.4000000000000004e+00 0.0000000000000000e+00 0.0000000000000000e+00
7.5000000000000000e+00 0.0000000000000000e+00 0.0000000000000000e+00
7.6000000000000005e+00 0.0000000000000000e+00 0.0000000000000000e+00
7.7000000000000002e+00 0.0000000000000000e+00 0.0000000000000000e+00
7.8000000000000007e+00 0.0000000000000000e+00 0.0000000000000000e+00
7.9000000000000004e+00 0.0000000000000000e+00 0.0000000000000000e+00
8.0000000000000000e+00 0.0000000000000000e+00 0.0000000000000000e+00
8.0999999999999996e+00 0.0000000000000000e+00 0.0000000000000000e+00
8.2000000000000011e+00 0.0000000000000000e+00 0.0000000000000000e+00
8.3000000000000007e+00 0.0000000000000000e+00 0.0000000000000000e+00
8.4000000000000004e+00 0.0000000000000000e+00 0.0000000000000000e+00
8.5000000000000000e+00 0.0000000000000000e+00 0.0000000000000000e+00
8.5999999999999996e+00 0.0000000000000000e+00 0.0000000000000000e+00
8.7000000000000011e+00 0.0000000000000000e+00 0.0000000000000000e+00
8.8000000000000007e+00 0.0000000000000000e+00 0.0000000000000000e+00
8.9000000000000004e+00 0.0000000000000000e+00 0.0000000000000000e+00
9.0000000000000000e+00 0.0000000000000000e+00 0.0000000000000000e+00
9.0999999999999996e+00 0.0000000000000000e+00 0.0000000000000000e+00
9.2000000000000011e+00 0.0000000000000000e+00 0.0000000000000000e+00
9.3000000000000007e+00 0.0000000000000000e+00 0.0000000000000000e+00
9.4000000000000004e+00 0.0000000000000000e+00 0.0000000000000000e+00
9.5000000000000000e+00 0.0000000000000000e+00 0.0000000000000000e+00
9.6000000000000014e+00 0.0000000000000000e+00 0.0000000000000000e+00
9.7000000000000011e+00 0.0000000000000000e+00 0.0000000000000000e+00
9.8000000000000007e+00 0.0000000000000000e+00 0.0000000000000000e+00
9.9000000000000004e+00 0.0000000000000000e+00 0.0000000000000000e+00
1.0000000000000000e+01 0.0000000000000000e+00 0.0000000000000000e+00

POINT_DATA 101

VECTORS velocity float
5.2025243296387238e+00 0.0000000000000000e+00 0.0000000000000000e+00
5.2022383277732889e+00 0.0000000000000000e+00 0.0000000000000000e+00
5.2019418881352841e+00 0.0000000000000000e+00 0.0000000000000000e+00
5.2016390238233274e+00 0.0000000000000000e+00 0.0000000000000000e+00
5.2013343132659555e+00 0.0000000000000000e+00 0.0000000000000000e+00
5.2010305611131606e+00 0.0000000000000000e+00 0.0000000000000000e+00
5.2007305637273742e+00 0.0000000000000000e+00 0.0000000000000000e+00
5.2004374090374297e+00 0.0000000000000000e+00 0.0000000000000000e+00
5.2001477189562877e+00 0.0000000000000000e+00 0.0000000000000000e+00
5.1998572158078629e+00 0.0000000000000000e+00 0.0000000000000000e+00
5.1995676147779664e+00 0.0000000000000000e+00 0.0000000000000000e+00
5.1992802707541577e+00 0.0000000000000000e+00 0.0000000000000000e+00
5.1989956908522457e+00 0.0000000000000000e+00 0.0000000000000000e+00
5.1987155944048782e+00 0.0000000000000000e+00 0.0000000000000000e+00
5.1984407533740606e+00 0.0000000000000000e+00 0.0000000000000000e+00
5.1981710626096618e+00 0.0000000000000000e+00 0.0000000000000000e+00
5.1979046918119618e+00 0.0000000000000000e+00 0.0000000000000000e+00
5.1976393496177060e+00 0.0000000000000000e+00 0.0000000000000000e+00
5.1973753638055538e+00 0.0000000000000000e+00 0.0000000000000000e+00
5.1971131254161449e+00 0.0000000000000000e+00 0.0000000000000000e+00
5.1968533642405257e+00 0.0000000000000000e+00 0.0000000000000000e+00
5.1965977359766038e+00 0.0000000000000000e+00 0.0000000000000000e+00
5.1963476059503089e+00 0.0000000000000000e+00 0.0000000000000000e+00
5.1961034792951910e+00 0.0000000000000000e+00 0.0000000000000000e+00
5.1958611016911567e+00 0.0000000000000000e+00 0.0000000000000000e+00
5.1956193049146684e+00 0.0000000000000000e+00 0.0000000000000000e+00
5.1953816629704717e+00 0.0000000000000000e+00 0.0000000000000000e+00
5.1951474953921180e+00 0.0000000000000000e+00 0.0000000000000000e+00
5.1949168032560591e+00 0.0000000000000000e+00 0.0000000000000000e+00
5.1946889958059783e+00 0.0000000000000000e+00 0.0000000000000000e+00
5.1944637056350249e+00 0.0000000000000000e+00 0.0000000000000000e+00
5.1942413638343323e+00 0.0000000000000000e+00 0.0000000000000000e+00
5.1940223834904211e+00 0.0000000000000000e+00 0.0000000000000000e+00
5.1938071652275424e+00 0.0000000000000000e+00 0.0000000000000000e+00
5.1935955429361274e+00 0.0000000000000000e+00 0.0000000000000000e+00
5.1933873175801324e+00 0.0000000000000000e+00 0.0000000000000000e+00
5.1931824325965472e+00 0.0000000000000000e+00 0.0000000000000000e+00
5.1929808181016597e+00 0.0000000000000000e+00 0.0000000000000000e+00
5.1927825395303175e+00 0.0000000000000000e+00 0.0000000000000000e+00
5.1925873358970609e+00 0.0000000000000000e+00 0.0000000000000000e+00
5.1923951003226207e+00 0.0000000000000000e+00 0.0000000000000000e+00
5.1922060770748599e+00 0.0000000000000000e+00 0.0000000000000000e+00
5.1920203445328976e+00 0.0000000000000000e+00 0.0000000000000000e+00
5.1918379472119085e+00 0.0000000000000000e+00 0.0000000000000000e+00
5.1916589114398350e+00 0.0000000000000000e+00 0.0000000000000000e+00
5.1914832533442947e+00 0.0000000000000000e+00 0.0000000000000000e+00
5.1913109833549385e+00 0.0000000000000000e+00 0.0000000000000000e+00
5.1911421085185143e+00 0.0000000000000000e+00 0.0000000000000000e+00
5.1909766349763160e+00 0.0000000000000000e+00 0.0000000000000000e+00
5.1908145676728505e+00 0.0000000000000000e+00 0.0000000000000000e+00
5.1906559102280143e+00 0.0000000000000000e+00 0.0000000000000000e+00
5.1905006667101512e+00 0.0000000000000000e+00 0.0000000000000000e+00
5.1903488406731011e+00 0.0000000000000000e+00 0.0000000000000000e+00
5.1902004352060800e+00 0.0000000000000000e+00 0.0000000000000000e+00
5.1900554537967354e+00 0.0000000000000000e+00 0.0000000000000000e+00
5.1899139001481718e+00 0.0000000000000000e+00 0.0000000000000000e+00
5.1897757768490642e+00 0.0000000000000000e+00 0.0000000000000000e+00
5.1896410867133591e+00 0.0000000000000000e+00 0.0000000000000000e+00
5.1895098334794465e+00 0.0000000000000000e+00 0.0000000000000000e+00
5.1893820201001883e+00 0.0000000000000000e+00 0.0000000000000000e+00
5.1892576492562537e+00 0.0000000000000000e+00 0.0000000000000000e+00
5.1891367237767021e+00 0.0000000000000000e+00 0.0000000000000000e+00
5.1890192464409495e+00 0.0000000000000000e+00 0.0000000000000000e+00
5.1889052196364149e+00 0.0000000000000000e+00 0.0000000000000000e+00
5.1887946458860661e+00 0.0000000000000000e+00 0.0000000000000000e+00
5.1886875277280531e+00 0.0000000000000000e+00 0.0000000000000000e+00
5.1885838674928344e+00 0.0000000000000000e+00 0.0000000000000000e+00
5.1884836676115782e+00 0.0000000000000000e+00 0.0000000000000000e+00
5.1883869304047003e+00 0.0000000000000000e+00 0.0000000000000000e+00
5.1882936579828671e+00 0.0000000000000000e+00 0.0000000000000000e+00
5.1882038524295275e+00 0.0000000000000000e+00 0.0000000000000000e+00
5.1881175157618884e+00 0.0000000000000000e+00 0.0000000000000000e+00
5.1880346499248438e+00 0.0000000000000000e+00 0.0000000000000000e+00
5.1879552568153642e+00 0.0000000000000000e+00 0.0000000000000000e+00
5.1878793382161765e+00 0.0000000000000000e+00 0.0000000000000000e+00
5.1878068957804704e+00 0.0000000000000000e+00 0.0000000000000000e+00
5.1877379313008269e+00 0.0000000000000000e+00 0.0000000000000000e+00
5.1876724461619661e+00 0.0000000000000000e+00 0.0000000000000000e+00
5.1876104418949271e+00 0.0000000000000000e+00 0.0000000000000000e+00
5.1875519203608889e+00 0.0000000000000000e+00 0.0000000000000000e+00
5.1874968825977499e+00 0.0000000000000000e+00 0.0000000000000000e+00
5.1874453297064669e+00 0.0000000000000000e+00 0.0000000000000000e+00
5.1873972627999123e+00 0.0000000000000000e+00 0.0000000000000000e+00
5.1873526837817341e+00 0.0000000000000000e+00 0.0000000000000000e+00
5.1873115935391549e+00 0.0000000000000000e+00 0.0000000000000000e+00
5.1872739916464941e+00 0.0000000000000000e+00 0.0000000000000000e+00
5.1872398789524183e+00 0.0000000000000000e+00 0.0000000000000000e+00
5.1872092572546284e+00 0.0000000000000000e+00 0.0000000000000000e+00
5.1871821278737089e+00 0.0000000000000000e+00 0.0000000000000000e+00
5.1871584911647979e+00 0.0000000000000000e+00 0.0000000000000000e+00
5.1871383476000572e+00 0.0000000000000000e+00 0.0000000000000000e+00
5.1871216979578660e+00 0.0000000000000000e+00 0.0000000000000000e+00
5.1871085400250836e+00 0.0000000000000000e+00 0.0000000000000000e+00
5.1870988827815685e+00 0.0000000000000000e+00 0.0000000000000000e+00
5.1870927057687171e+00 0.0000000000000000e+00 0.0000000000000000e+00
5.1870900585436530e+00 0.0000000000000000e+00 0.0000000000000000e+00
5.1870908168923480e+00 0.0000000000000000e+00 0.0000000000000000e+00
5.1870952934580021e+00 0.0000000000000000e+00 0.0000000000000000e+00
5.1871027041556879e+00 0.0000000000000000e+00 0.0000000000000000e+00
5.1871150099896477e+00 0.0000000000000000e+00 0.0000000000000000e+00
5.1871273158236075e+00 0.0000000000000000e+00 0.0000000000000000e+00


SCALARS pressure float
LOOKUP_TABLE default
4.3380861164079283e+00
4.2995575941070152e+00
4.2610290718061012e+00
4.2224389733592593e+00
4.1837641323760328e+00
4.1449842797624887e+00
4.1060860848335352e+00
4.0670571976038801e+00
4.0278831523035468e+00
3.9885757952474878e+00
3.9491560981538725e+00
3.9096217090883245e+00
3.8699672044457079e+00
3.8301902384051814e+00
3.7902841064820749e+00
3.7502451831038259e+00
3.7100739241118101e+00
3.6697786892311179e+00
3.6293714767445566e+00
3.5888543169652043e+00
3.5482270434534926e+00
3.5074874013968134e+00
3.4666286211722923e+00
3.4256440561154751e+00
3.3845306604733247e+00
3.3433071630306270e+00
3.3019832652526131e+00
3.2605463208122880e+00
3.2189973808377639e+00
3.1773373821149682e+00
3.1355697606812201e+00
3.0936975446570143e+00
3.0517203343506010e+00
3.0096372029672058e+00
2.9674472373833889e+00
2.9251518536313266e+00
2.8827530342099652e+00
2.8402522719997845e+00
2.7976510055588237e+00
2.7549501286879030e+00
2.7121516777105934e+00
2.6692571071466040e+00
2.6262664100821653e+00
2.5831800131337377e+00
2.5399985822990105e+00
2.4967229135415065e+00
2.4533538751711679e+00
2.4098923764726234e+00
2.3663393513964084e+00
2.3226957446234286e+00
2.2789625099337942e+00
2.2351406104101712e+00
2.1912310109381585e+00
2.1472346808162510e+00
2.1031525940780500e+00
2.0589857258491557e+00
2.0147350522937502e+00
1.9704015562183521e+00
1.9259862225687245e+00
1.8814900345737584e+00
1.8369139801013459e+00
1.7922590507588185e+00
1.7475262399358851e+00
1.7027165431838065e+00
1.6578309596821379e+00
1.6128704903007005e+00
1.5678361377042933e+00
1.5227289072756440e+00
1.4775498059833398e+00
1.4322998430181524e+00
1.3869800303056459e+00
1.3415913818033163e+00
1.2961349135091029e+00
1.2506116434466739e+00
1.2050225915512518e+00
1.1593687799061609e+00
1.1136512327788741e+00
1.0678709755421065e+00
1.0220290366356692e+00
9.7612644572771623e-01
9.3016423250285363e-01
8.8414343112796479e-01
8.3806507746213976e-01
7.9193020871853070e-01
7.4573986015017024e-01
6.9949507178756842e-01
6.5319689107170165e-01
6.0684636243991008e-01
5.6044452654911503e-01
5.1399242639792508e-01
4.6749111040442587e-01
4.2094162852811429e-01
3.7434503035164579e-01
3.2770237839800903e-01
2.8101469234092480e-01
2.3428310564897115e-01
1.8750848721370048e-01
1.4069236539594396e-01
9.3834619395002150e-02
4.6939251999643911e-02
0.0000000000000000e+00


SCALARS diameter float
LOOKUP_TABLE default
1.0003932856718314e+00
1.0003890135216222e+00
1.0003846363512581e+00
1.0003814929073553e+00
1.0003785756923014e+00
1.0003755879906608e+00
1.0003721398246230e+00
1.0003674622771630e+00
1.0003622848678926e+00
1.0003589080459891e+00
1.0003560117348227e+00
1.0003530527157662e+00
1.0003500562762278e+00
1.0003467392946439e+00
1.0003426353742939e+00
1.0003382355492401e+00
1.0003336513458341e+00
1.0003300358512996e+00
1.0003268250127682e+00
1.0003238619201937e+00
1.0003209246778542e+00
1.0003176616316460e+00
1.0003136271835014e+00
1.0003089707420443e+00
1.0003045313599086e+00
1.0003016588139066e+00
1.0002978887299221e+00
1.0002940281923598e+00
1.0002901607620456e+00
1.0002863117696694e+00
1.0002827792988065e+00
1.0002792272931056e+00
1.0002756431121262e+00
1.0002718522467933e+00
1.0002679682982027e+00
1.0002640741081554e+00
1.0002601689115345e+00
1.0002562526903069e+00
1.0002523251769302e+00
1.0002483961670789e+00
1.0002445940936511e+00
1.0002407770855408e+00
1.0002369462840002e+00
1.0002331026165454e+00
1.0002292464995288e+00
1.0002253782767709e+00
1.0002214982366260e+00
1.0002176067219186e+00
1.0002137039045411e+00
1.0002097897336724e+00
1.0002058647661791e+00
1.0002019290905015e+00
1.0001979828412177e+00
1.0001940264152289e+00
1.0001900599315203e+00
1.0001860834425305e+00
1.0001820972201412e+00
1.0001781017772520e+00
1.0001740968742012e+00
1.0001700827584552e+00
1.0001660597194306e+00
1.0001620279484533e+00
1.0001579875744639e+00
1.0001539388685829e+00
1.0001498820677743e+00
1.0001458172787059e+00
1.0001417447543499e+00
1.0001376646443858e+00
1.0001335771137441e+00
1.0001294823797573e+00
1.0001253806539112e+00
1.0001212721034154e+00
1.0001171569413354e+00
1.0001130353266827e+00
1.0001089074733798e+00
1.0001047735658859e+00
1.0001006337954952e+00
1.0000964883106629e+00
1.0000923374271746e+00
1.0000881810844704e+00
1.0000840195642111e+00
1.0000798532140649e+00
1.0000756820969152e+00
1.0000715063700207e+00
1.0000673259105217e+00
1.0000631416824182e+00
1.0000589537017663e+00
1.0000547618744915e+00
1.0000505661062622e+00
1.0000463668431865e+00
1.0000421643003030e+00
1.0000379585791273e+00
1.0000337502981773e+00
1.0000295387248781e+00
1.0000253248495581e+00
1.0000211087197568e+00
1.0000168904563040e+00
1.0000126702652163e+00
1.0000084482897489e+00
1.0000042248861203e+00
1.0000000001087483e+00


SCALARS iters float
LOOKUP_TABLE default
3.0000000000000000e+00
3.0000000000000000e+00
3.0000000000000000e+00
3.0000000000000000e+00
3.0000000000000000e+00
3.0000000000000000e+00
3.0000000000000000e+00
3.0000000000000000e+00
3.0000000000000000e+00
3.0000000000000000e+00
3.0000000000000000e+00
3.0000000000000000e+00
3.0000000000000000e+00
3.0000000000000000e+00
3.0000000000000000e+00
3.0000000000000000e+00
3.0000000000000000e+00
3.0000000000000000e+00
3.0000000000000000e+00
3.0000000000000000e+00
3.0000000000000000e+00
3.0000000000000000e+00
3.0000000000000000e+00
3.0000000000000000e+00
3.0000000000000000e+00
3.0000000000000000e+00
3.0000000000000000e+00
3.0000000000000000e+00
3.0000000000000000e+00
3.0000000000000000e+00
3.0000000000000000e+00
3.0000000000000000e+00
3.0000000000000000e+00
3.0000000000000000e+00
3.0000000000000000e+00
3.0000000000000000e+00
3.0000000000000000e+00
3.0000000000000000e+00
3.0000000000000000e+00
3.0000000000000000e+00
3.0000000000000000e+00
3.0000000000000000e+00
3.0000000000000000e+00
3.0000000000000000e+00
3.0000000000000000e+00
3.0000000000000000e+00
3.0000000000000000e+00
3.0000000000000000e+00
3.0000000000000000e+00
3.0000000000000000e+00
3.0000000000000000e+00
3.0000000000000000e+00
3.0000000000000000e+00
3.0000000000000000e+00
3.0000000000000000e+00
3.0000000000000000e+00
3.0000000000000000e+00
3.0000000000000000e+00
3.0000000000000000e+00
3.0000000000000000e+00
3.0000000000000000e+00
3.0000000000000000e+00
3.0000000000000000e+00
3.0000000000000000e+00
3.0000000000000000e+00
3.0000000000000000e+00
3.0000000000000000e+00
3.0000000000000000e+00
3.0000000000000000e+00
3.0000000000000000e+00
3.0000000000000000e+00
3.0000000000000000e+00
3.0000000000000000e+00
3.0000000000000000e+00
3.0000000000000000e+00
3.0000000000000000e+00
3.0000000000000000e+00
3.0000000000000000e+00
3.0000000000000000e+00
3.0000000000000000e+00
3.0000000000000000e+00
3.0000000000000000e+00
3.0000000000000000e+00
3.0000000000000000e+00
3.0000000000000000e+00
3.0000000000000000e+00
3.0000000000000000e+00
3.0000000000000000e+00
3.0000000000000000e+00
3.0000000000000000e+00
3.0000000000000000e+00
3.0000000000000000e+00
3.0000000000000000e+00
3.0000000000000000e+00
3.0000000000000000e+00
3.0000000000000000e+00
3.0000000000000000e+00
3.0000000000000000e+00
3.0000000000000000e+00
3.0000000000000000e+00
3.0000000000000000e+00


