# vtk DataFile Version 2.0

ASCII

DATASET UNSTRUCTURED_GRID

POINTS 101 float

0.0000000000000000e+00 0.0000000000000000e+00 0.0000000000000000e+00
1.0000000000000001e-01 0.0000000000000000e+00 0.0000000000000000e+00
2.0000000000000001e-01 0.0000000000000000e+00 0.0000000000000000e+00
3.0000000000000004e-01 0.0000000000000000e+00 0.0000000000000000e+00
4.0000000000000002e-01 0.0000000000000000e+00 0.0000000000000000e+00
5.0000000000000000e-01 0.0000000000000000e+00 0.0000000000000000e+00
6.0000000000000009e-01 0.0000000000000000e+00 0.0000000000000000e+00
7.0000000000000007e-01 0.0000000000000000e+00 0.0000000000000000e+00
8.0000000000000004e-01 0.0000000000000000e+00 0.0000000000000000e+00
9.0000000000000002e-01 0.0000000000000000e+00 0.0000000000000000e+00
1.0000000000000000e+00 0.0000000000000000e+00 0.0000000000000000e+00
1.1000000000000001e+00 0.0000000000000000e+00 0.0000000000000000e+00
1.2000000000000002e+00 0.0000000000000000e+00 0.0000000000000000e+00
1.3000000000000000e+00 0.0000000000000000e+00 0.0000000000000000e+00
1.4000000000000001e+00 0.0000000000000000e+00 0.0000000000000000e+00
1.5000000000000000e+00 0.0000000000000000e+00 0.0000000000000000e+00
1.6000000000000001e+00 0.0000000000000000e+00 0.0000000000000000e+00
1.7000000000000002e+00 0.0000000000000000e+00 0.0000000000000000e+00
1.8000000000000000e+00 0.0000000000000000e+00 0.0000000000000000e+00
1.9000000000000001e+00 0.0000000000000000e+00 0.0000000000000000e+00
2.0000000000000000e+00 0.0000000000000000e+00 0.0000000000000000e+00
2.1000000000000001e+00 0.0000000000000000e+00 0.0000000000000000e+00
2.2000000000000002e+00 0.0000000000000000e+00 0.0000000000000000e+00
2.3000000000000003e+00 0.0000000000000000e+00 0.0000000000000000e+00
2.4000000000000004e+00 0.0000000000000000e+00 0.0000000000000000e+00
2.5000000000000000e+00 0.0000000000000000e+00 0.0000000000000000e+00
2.6000000000000001e+00 0.0000000000000000e+00 0.0000000000000000e+00
2.7000000000000002e+00 0.0000000000000000e+00 0.0000000000000000e+00
2.8000000000000003e+00 0.0000000000000000e+00 0.0000000000000000e+00
2.9000000000000004e+00 0.0000000000000000e+00 0.0000000000000000e+00
3.0000000000000000e+00 0.0000000000000000e+00 0.0000000000000000e+00
3.1000000000000001e+00 0.0000000000000000e+00 0.0000000000000000e+00
3.2000000000000002e+00 0.0000000000000000e+00 0.0000000000000000e+00
3.3000000000000003e+00 0.0000000000000000e+00 0.0000000000000000e+00
3.4000000000000004e+00 0.0000000000000000e+00 0.0000000000000000e+00
3.5000000000000000e+00 0.0000000000000000e+00 0.0000000000000000e+00
3.6000000000000001e+00 0.0000000000000000e+00 0.0000000000000000e+00
3.7000000000000002e+00 0.0000000000000000e+00 0.0000000000000000e+00
3.8000000000000003e+00 0.0000000000000000e+00 0.0000000000000000e+00
3.9000000000000004e+00 0.0000000000000000e+00 0.0000000000000000e+00
4.0000000000000000e+00 0.0000000000000000e+00 0.0000000000000000e+00
4.1000000000000005e+00 0.0000000000000000e+00 0.0000000000000000e+00
4.2000000000000002e+00 0.0000000000000000e+00 0.0000000000000000e+00
4.2999999999999998e+00 0.0000000000000000e+00 0.0000000000000000e+00
4.4000000000000004e+00 0.0000000000000000e+00 0.0000000000000000e+00
4.5000000000000000e+00 0.0000000000000000e+00 0.0000000000000000e+00
4.6000000000000005e+00 0.0000000000000000e+00 0.0000000000000000e+00
4.7000000000000002e+00 0.0000000000000000e+00 0.0000000000000000e+00
4.8000000000000007e+00 0.0000000000000000e+00 0.0000000000000000e+00
4.9000000000000004e+00 0.0000000000000000e+00 0.0000000000000000e+00
5.0000000000000000e+00 0.0000000000000000e+00 0.0000000000000000e+00
5.1000000000000005e+00 0.0000000000000000e+00 0.0000000000000000e+00
5.2000000000000002e+00 0.0000000000000000e+00 0.0000000000000000e+00
5.3000000000000007e+00 0.0000000000000000e+00 0.0000000000000000e+00
5.4000000000000004e+00 0.0000000000000000e+00 0.0000000000000000e+00
5.5000000000000000e+00 0.0000000000000000e+00 0.0000000000000000e+00
5.6000000000000005e+00 0.0000000000000000e+00 0.0000000000000000e+00
5.7000000000000002e+00 0.0000000000000000e+00 0.0000000000000000e+00
5.8000000000000007e+00 0.0000000000000000e+00 0.0000000000000000e+00
5.9000000000000004e+00 0.0000000000000000e+00 0.0000000000000000e+00
6.0000000000000000e+00 0.0000000000000000e+00 0.0000000000000000e+00
6.1000000000000005e+00 0.0000000000000000e+00 0.0000000000000000e+00
6.2000000000000002e+00 0.0000000000000000e+00 0.0000000000000000e+00
6.3000000000000007e+00 0.0000000000000000e+00 0.0000000000000000e+00
6.4000000000000004e+00 0.0000000000000000e+00 0.0000000000000000e+00
6.5000000000000000e+00 0.0000000000000000e+00 0.0000000000000000e+00
6.6000000000000005e+00 0.0000000000000000e+00 0.0000000000000000e+00
6.7000000000000002e+00 0.0000000000000000e+00 0.0000000000000000e+00
6.8000000000000007e+00 0.0000000000000000e+00 0.0000000000000000e+00
6.9000000000000004e+00 0.0000000000000000e+00 0.0000000000000000e+00
7.0000000000000000e+00 0.0000000000000000e+00 0.0000000000000000e+00
7.1000000000000005e+00 0.0000000000000000e+00 0.0000000000000000e+00
7.2000000000000002e+00 0.0000000000000000e+00 0.0000000000000000e+00
7.3000000000000007e+00 0.0000000000000000e+00 0.0000000000000000e+00
7.4000000000000004e+00 0.0000000000000000e+00 0.0000000000000000e+00
7.5000000000000000e+00 0.0000000000000000e+00 0.0000000000000000e+00
7.6000000000000005e+00 0.0000000000000000e+00 0.0000000000000000e+00
7.7000000000000002e+00 0.0000000000000000e+00 0.0000000000000000e+00
7.8000000000000007e+00 0.0000000000000000e+00 0.0000000000000000e+00
7.9000000000000004e+00 0.0000000000000000e+00 0.0000000000000000e+00
8.0000000000000000e+00 0.0000000000000000e+00 0.0000000000000000e+00
8.0999999999999996e+00 0.0000000000000000e+00 0.0000000000000000e+00
8.2000000000000011e+00 0.0000000000000000e+00 0.0000000000000000e+00
8.3000000000000007e+00 0.0000000000000000e+00 0.0000000000000000e+00
8.4000000000000004e+00 0.0000000000000000e+00 0.0000000000000000e+00
8.5000000000000000e+00 0.0000000000000000e+00 0.0000000000000000e+00
8.5999999999999996e+00 0.0000000000000000e+00 0.0000000000000000e+00
8.7000000000000011e+00 0.0000000000000000e+00 0.0000000000000000e+00
8.8000000000000007e+00 0.0000000000000000e+00 0.0000000000000000e+00
8.9000000000000004e+00 0.0000000000000000e+00 0.0000000000000000e+00
9.0000000000000000e+00 0.0000000000000000e+00 0.0000000000000000e+00
9.0999999999999996e+00 0.0000000000000000e+00 0.0000000000000000e+00
9.2000000000000011e+00 0.0000000000000000e+00 0.0000000000000000e+00
9.3000000000000007e+00 0.0000000000000000e+00 0.0000000000000000e+00
9.4000000000000004e+00 0.0000000000000000e+00 0.0000000000000000e+00
9.5000000000000000e+00 0.0000000000000000e+00 0.0000000000000000e+00
9.6000000000000014e+00 0.0000000000000000e+00 0.0000000000000000e+00
9.7000000000000011e+00 0.0000000000000000e+00 0.0000000000000000e+00
9.8000000000000007e+00 0.0000000000000000e+00 0.0000000000000000e+00
9.9000000000000004e+00 0.0000000000000000e+00 0.0000000000000000e+00
1.0000000000000000e+01 0.0000000000000000e+00 0.0000000000000000e+00

POINT_DATA 101

VECTORS velocity float
5.8358100454812547e+00 0.0000000000000000e+00 0.0000000000000000e+00
5.8362144172799004e+00 0.0000000000000000e+00 0.0000000000000000e+00
5.8366128319381803e+00 0.0000000000000000e+00 0.0000000000000000e+00
5.8370059581253164e+00 0.0000000000000000e+00 0.0000000000000000e+00
5.8373942142339112e+00 0.0000000000000000e+00 0.0000000000000000e+00
5.8377778614371092e+00 0.0000000000000000e+00 0.0000000000000000e+00
5.8381570613366893e+00 0.0000000000000000e+00 0.0000000000000000e+00
5.8385319130685120e+00 0.0000000000000000e+00 0.0000000000000000e+00
5.8389024770442486e+00 0.0000000000000000e+00 0.0000000000000000e+00
5.8392687895966695e+00 0.0000000000000000e+00 0.0000000000000000e+00
5.8396308721362118e+00 0.0000000000000000e+00 0.0000000000000000e+00
5.8399887368467134e+00 0.0000000000000000e+00 0.0000000000000000e+00
5.8403423902431442e+00 0.0000000000000000e+00 0.0000000000000000e+00
5.8406918353406185e+00 0.0000000000000000e+00 0.0000000000000000e+00
5.8410370730196126e+00 0.0000000000000000e+00 0.0000000000000000e+00
5.8413781028519915e+00 0.0000000000000000e+00 0.0000000000000000e+00
5.8417149236185661e+00 0.0000000000000000e+00 0.0000000000000000e+00
5.8420475336195814e+00 0.0000000000000000e+00 0.0000000000000000e+00
5.8423759308658907e+00 0.0000000000000000e+00 0.0000000000000000e+00
5.8427001132006193e+00 0.0000000000000000e+00 0.0000000000000000e+00
5.8430200783736446e+00 0.0000000000000000e+00 0.0000000000000000e+00
5.8433358240777027e+00 0.0000000000000000e+00 0.0000000000000000e+00
5.8436473479793154e+00 0.0000000000000000e+00 0.0000000000000000e+00
5.8439546477310724e+00 0.0000000000000000e+00 0.0000000000000000e+00
5.8442577209934630e+00 0.0000000000000000e+00 0.0000000000000000e+00
5.8445565654264238e+00 0.0000000000000000e+00 0.0000000000000000e+00
5.8448511786970760e+00 0.0000000000000000e+00 0.0000000000000000e+00
5.8451415584930269e+00 0.0000000000000000e+00 0.0000000000000000e+00
5.8454277025033550e+00 0.0000000000000000e+00 0.0000000000000000e+00
5.8457096084358335e+00 0.0000000000000000e+00 0.0000000000000000e+00
5.8459872740186736e+00 0.0000000000000000e+00 0.0000000000000000e+00
5.8462606969792281e+00 0.0000000000000000e+00 0.0000000000000000e+00
5.8465298750663024e+00 0.0000000000000000e+00 0.0000000000000000e+00
5.8467948060500490e+00 0.0000000000000000e+00 0.0000000000000000e+00
5.8470554877067844e+00 0.0000000000000000e+00 0.0000000000000000e+00
5.8473119178300266e+00 0.0000000000000000e+00 0.0000000000000000e+00
5.8475640942279030e+00 0.0000000000000000e+00 0.0000000000000000e+00
5.8478120147242159e+00 0.0000000000000000e+00 0.0000000000000000e+00
5.8480556771561103e+00 0.0000000000000000e+00 0.0000000000000000e+00
5.8482950793800006e+00 0.0000000000000000e+00 0.0000000000000000e+00
5.8485302192611233e+00 0.0000000000000000e+00 0.0000000000000000e+00
5.8487610946761421e+00 0.0000000000000000e+00 0.0000000000000000e+00
5.8489877035290263e+00 0.0000000000000000e+00 0.0000000000000000e+00
5.8492100437294194e+00 0.0000000000000000e+00 0.0000000000000000e+00
5.8494281132016708e+00 0.0000000000000000e+00 0.0000000000000000e+00
5.8496419098951939e+00 0.0000000000000000e+00 0.0000000000000000e+00
5.8498514317624952e+00 0.0000000000000000e+00 0.0000000000000000e+00
5.8500566767724376e+00 0.0000000000000000e+00 0.0000000000000000e+00
5.8502576429177182e+00 0.0000000000000000e+00 0.0000000000000000e+00
5.8504543281986194e+00 0.0000000000000000e+00 0.0000000000000000e+00
5.8506467306280774e+00 0.0000000000000000e+00 0.0000000000000000e+00
5.8508348482421422e+00 0.0000000000000000e+00 0.0000000000000000e+00
5.8510186790896794e+00 0.0000000000000000e+00 0.0000000000000000e+00
5.8511982212304572e+00 0.0000000000000000e+00 0.0000000000000000e+00
5.8513734727437265e+00 0.0000000000000000e+00 0.0000000000000000e+00
5.8515444317202903e+00 0.0000000000000000e+00 0.0000000000000000e+00
5.8517110962702024e+00 0.0000000000000000e+00 0.0000000000000000e+00
5.8518734645144397e+00 0.0000000000000000e+00 0.0000000000000000e+00
5.8520315345960050e+00 0.0000000000000000e+00 0.0000000000000000e+00
5.8521853046647898e+00 0.0000000000000000e+00 0.0000000000000000e+00
5.8523347728917940e+00 0.0000000000000000e+00 0.0000000000000000e+00
5.8524799374596599e+00 0.0000000000000000e+00 0.0000000000000000e+00
5.8526207965692745e+00 0.0000000000000000e+00 0.0000000000000000e+00
5.8527573484290070e+00 0.0000000000000000e+00 0.0000000000000000e+00
5.8528895912722794e+00 0.0000000000000000e+00 0.0000000000000000e+00
5.8530175233467050e+00 0.0000000000000000e+00 0.0000000000000000e+00
5.8531411429092373e+00 0.0000000000000000e+00 0.0000000000000000e+00
5.8532604482406834e+00 0.0000000000000000e+00 0.0000000000000000e+00
5.8533754376321392e+00 0.0000000000000000e+00 0.0000000000000000e+00
5.8534861093879140e+00 0.0000000000000000e+00 0.0000000000000000e+00
5.8535924618286108e+00 0.0000000000000000e+00 0.0000000000000000e+00
5.8536944932924975e+00 0.0000000000000000e+00 0.0000000000000000e+00
5.8537922021317366e+00 0.0000000000000000e+00 0.0000000000000000e+00
5.8538855867184827e+00 0.0000000000000000e+00 0.0000000000000000e+00
5.8539746454357529e+00 0.0000000000000000e+00 0.0000000000000000e+00
5.8540593766767897e+00 0.0000000000000000e+00 0.0000000000000000e+00
5.8541397788610654e+00 0.0000000000000000e+00 0.0000000000000000e+00
5.8542158504211876e+00 0.0000000000000000e+00 0.0000000000000000e+00
5.8542875897925093e+00 0.0000000000000000e+00 0.0000000000000000e+00
5.8543549954462843e+00 0.0000000000000000e+00 0.0000000000000000e+00
5.8544180658575504e+00 0.0000000000000000e+00 0.0000000000000000e+00
5.8544767995168447e+00 0.0000000000000000e+00 0.0000000000000000e+00
5.8545311949343235e+00 0.0000000000000000e+00 0.0000000000000000e+00
5.8545812506315897e+00 0.0000000000000000e+00 0.0000000000000000e+00
5.8546269651458207e+00 0.0000000000000000e+00 0.0000000000000000e+00
5.8546683370323098e+00 0.0000000000000000e+00 0.0000000000000000e+00
5.8547053648614851e+00 0.0000000000000000e+00 0.0000000000000000e+00
5.8547380471979507e+00 0.0000000000000000e+00 0.0000000000000000e+00
5.8547663827048124e+00 0.0000000000000000e+00 0.0000000000000000e+00
5.8547903698451575e+00 0.0000000000000000e+00 0.0000000000000000e+00
5.8548100076505261e+00 0.0000000000000000e+00 0.0000000000000000e+00
5.8548252937135379e+00 0.0000000000000000e+00 0.0000000000000000e+00
5.8548362294602274e+00 0.0000000000000000e+00 0.0000000000000000e+00
5.8548428063377882e+00 0.0000000000000000e+00 0.0000000000000000e+00
5.8548450419539000e+00 0.0000000000000000e+00 0.0000000000000000e+00
5.8548428855480443e+00 0.0000000000000000e+00 0.0000000000000000e+00
5.8548364652469855e+00 0.0000000000000000e+00 0.0000000000000000e+00
5.8548254414563035e+00 0.0000000000000000e+00 0.0000000000000000e+00
5.8548106971910050e+00 0.0000000000000000e+00 0.0000000000000000e+00
5.8547899210745582e+00 0.0000000000000000e+00 0.0000000000000000e+00
5.8547691449581114e+00 0.0000000000000000e+00 0.0000000000000000e+00


SCALARS pressure float
LOOKUP_TABLE default
-6.1542987056581149e+00
-6.0927739294138910e+00
-6.0312491531696661e+00
-5.9697336185590082e+00
-5.9082327834564170e+00
-5.8467497392828793e+00
-5.7852861048781330e+00
-5.7238425805151607e+00
-5.6624192952649093e+00
-5.6010160255550350e+00
-5.5396323304368842e+00
-5.4782676352997255e+00
-5.4169212835564471e+00
-5.3555925686073049e+00
-5.2942807533705212e+00
-5.2329850823595558e+00
-5.1717047890357719e+00
-5.1104391003396463e+00
-5.0491872394333326e+00
-4.9879484273697887e+00
-4.9267218841312888e+00
-4.8655068292696892e+00
-4.8043024822522691e+00
-4.7431080627018467e+00
-4.6819227905185716e+00
-4.6207458860184580e+00
-4.5595765699303552e+00
-4.4984140634298200e+00
-4.4372575882139706e+00
-4.3761063664295579e+00
-4.3149596207346761e+00
-4.2538165743270149e+00
-4.1926764508467356e+00
-4.1315384744550521e+00
-4.0704018698586264e+00
-4.0092658622429624e+00
-3.9481296773059329e+00
-3.8869925412547408e+00
-3.8258536808105004e+00
-3.7647123231980815e+00
-3.7035676961727866e+00
-3.6424190279768371e+00
-3.5812655473372312e+00
-3.5201064835439104e+00
-3.4589410663677631e+00
-3.3977685260793700e+00
-3.3365880935064931e+00
-3.2753989999434401e+00
-3.2142004771873132e+00
-3.1529917575862787e+00
-3.0917720739749974e+00
-3.0305406596786613e+00
-2.9692967485656809e+00
-2.9080395750140551e+00
-2.8467683738912819e+00
-2.7854823805900248e+00
-2.7241808309995048e+00
-2.6628629615349602e+00
-2.6015280091052291e+00
-2.5401752111581901e+00
-2.4788038056195001e+00
-2.4174130309437278e+00
-2.3560021260828417e+00
-2.2945703305092811e+00
-2.2331168841686035e+00
-2.1716410275515927e+00
-2.1101420016638004e+00
-2.0486190479919273e+00
-1.9870714085651098e+00
-1.9254983259068816e+00
-1.8638990430341087e+00
-1.8022728034706055e+00
-1.7406188512580254e+00
-1.6789364309406716e+00
-1.6172247875915322e+00
-1.5554831667751594e+00
-1.4937108145314151e+00
-1.4319069774491238e+00
-1.3700709026252831e+00
-1.3082018375994680e+00
-1.2462990304974464e+00
-1.1843617299175109e+00
-1.1223891849529990e+00
-1.0603806452185200e+00
-9.9833536081773078e-01
-9.3625258235205500e-01
-8.7413156093797673e-01
-8.1197154819120998e-01
-7.4977179613162714e-01
-6.8753155763249607e-01
-6.2525008518453773e-01
-5.6292663404597043e-01
-5.0056045399540816e-01
-4.3815081098247632e-01
-3.7569693046996999e-01
-3.1319814553832248e-01
-2.5065350980020096e-01
-1.8806280915885631e-01
-1.2542391781588011e-01
-6.2739705049071073e-02
0.0000000000000000e+00


SCALARS diameter float
LOOKUP_TABLE default
9.9944468311010082e-01
9.9945023107697595e-01
9.9945577956991483e-01
9.9946132773432061e-01
9.9946687505504650e-01
9.9947242090294630e-01
9.9947796499282471e-01
9.9948350730940472e-01
9.9948904784048198e-01
9.9949458660818480e-01
9.9950012364773333e-01
9.9950565901680144e-01
9.9951119276920020e-01
9.9951672497179378e-01
9.9952225568924413e-01
9.9952778499128236e-01
9.9953331294588343e-01
9.9953883962360346e-01
9.9954436509436195e-01
9.9954988943006462e-01
9.9955541269870773e-01
9.9956093497224296e-01
9.9956645632033181e-01
9.9957197681517540e-01
9.9957749652577776e-01
9.9958301552167761e-01
9.9958853387607494e-01
9.9959405165605053e-01
9.9959956893341018e-01
9.9960508577970186e-01
9.9961060226150644e-01
9.9961611845182097e-01
9.9962163442242857e-01
9.9962715023955440e-01
9.9963266597536926e-01
9.9963818169960117e-01
9.9964369748241477e-01
9.9964921339342827e-01
9.9965472950271816e-01
9.9966024587975866e-01
9.9966576259365481e-01
9.9967127971779834e-01
9.9967679731855918e-01
9.9968231546604813e-01
9.9968783423204655e-01
9.9969335368326195e-01
9.9969887388989465e-01
9.9970439492459029e-01
9.9970991685290411e-01
9.9971543974616328e-01
9.9972096367404772e-01
9.9972648870655778e-01
9.9973201490952801e-01
9.9973754235683066e-01
9.9974307111361549e-01
9.9974860125321063e-01
9.9975413284059611e-01
9.9975966594904719e-01
9.9976520064319463e-01
9.9977073699579888e-01
9.9977627507355327e-01
9.9978181494704754e-01
9.9978735668398866e-01
9.9979290035500035e-01
9.9979844602909340e-01
9.9980399377175921e-01
9.9980954365576247e-01
9.9981509574635485e-01
9.9982065011382537e-01
9.9982620682637446e-01
9.9983176595462275e-01
9.9983732756479060e-01
9.9984289172755447e-01
9.9984845850853366e-01
9.9985402797802603e-01
9.9985960020441567e-01
9.9986517525776508e-01
9.9987075320075414e-01
9.9987633410984955e-01
9.9988191804673698e-01
9.9988750508154023e-01
9.9989309528274939e-01
9.9989868871848864e-01
9.9990428545587517e-01
9.9990988556553462e-01
9.9991548911274053e-01
9.9992109616774771e-01
9.9992670679945128e-01
9.9993232107180885e-01
9.9993793905570061e-01
9.9994356081665936e-01
9.9994918642653075e-01
9.9995481594814750e-01
9.9996044945340279e-01
9.9996608700984624e-01
9.9997172867668338e-01
9.9997737454135027e-01
9.9998302462431765e-01
9.9998867911551936e-01
9.9999433775863789e-01
1.0000000014722141e+00


SCALARS iters float
LOOKUP_TABLE default
3.0000000000000000e+00
3.0000000000000000e+00
3.0000000000000000e+00
3.0000000000000000e+00
3.0000000000000000e+00
3.0000000000000000e+00
3.0000000000000000e+00
3.0000000000000000e+00
3.0000000000000000e+00
3.0000000000000000e+00
3.0000000000000000e+00
3.0000000000000000e+00
3.0000000000000000e+00
3.0000000000000000e+00
3.0000000000000000e+00
3.0000000000000000e+00
3.0000000000000000e+00
3.0000000000000000e+00
3.0000000000000000e+00
3.0000000000000000e+00
3.0000000000000000e+00
3.0000000000000000e+00
3.0000000000000000e+00
3.0000000000000000e+00
3.0000000000000000e+00
3.0000000000000000e+00
3.0000000000000000e+00
3.0000000000000000e+00
3.0000000000000000e+00
3.0000000000000000e+00
3.0000000000000000e+00
3.0000000000000000e+00
3.0000000000000000e+00
3.0000000000000000e+00
3.0000000000000000e+00
3.0000000000000000e+00
3.0000000000000000e+00
3.0000000000000000e+00
3.0000000000000000e+00
3.0000000000000000e+00
3.0000000000000000e+00
3.0000000000000000e+00
3.0000000000000000e+00
3.0000000000000000e+00
3.0000000000000000e+00
3.0000000000000000e+00
3.0000000000000000e+00
3.0000000000000000e+00
3.0000000000000000e+00
3.0000000000000000e+00
3.0000000000000000e+00
3.0000000000000000e+00
3.0000000000000000e+00
3.0000000000000000e+00
3.0000000000000000e+00
3.0000000000000000e+00
3.0000000000000000e+00
3.0000000000000000e+00
3.0000000000000000e+00
3.0000000000000000e+00
3.0000000000000000e+00
3.0000000000000000e+00
3.0000000000000000e+00
3.0000000000000000e+00
3.0000000000000000e+00
3.0000000000000000e+00
3.0000000000000000e+00
3.0000000000000000e+00
3.0000000000000000e+00
3.0000000000000000e+00
3.0000000000000000e+00
3.0000000000000000e+00
3.0000000000000000e+00
3.0000000000000000e+00
3.0000000000000000e+00
3.0000000000000000e+00
3.0000000000000000e+00
3.0000000000000000e+00
3.0000000000000000e+00
3.0000000000000000e+00
3.0000000000000000e+00
3.0000000000000000e+00
3.0000000000000000e+00
3.0000000000000000e+00
3.0000000000000000e+00
3.0000000000000000e+00
3.0000000000000000e+00
3.0000000000000000e+00
3.0000000000000000e+00
3.0000000000000000e+00
3.0000000000000000e+00
3.0000000000000000e+00
3.0000000000000000e+00
3.0000000000000000e+00
3.0000000000000000e+00
3.0000000000000000e+00
3.0000000000000000e+00
3.0000000000000000e+00
3.0000000000000000e+00
3.0000000000000000e+00
3.0000000000000000e+00


