# vtk DataFile Version 2.0

ASCII

DATASET UNSTRUCTURED_GRID

POINTS 101 float

0.0000000000000000e+00 0.0000000000000000e+00 0.0000000000000000e+00
1.0000000000000001e-01 0.0000000000000000e+00 0.0000000000000000e+00
2.0000000000000001e-01 0.0000000000000000e+00 0.0000000000000000e+00
3.0000000000000004e-01 0.0000000000000000e+00 0.0000000000000000e+00
4.0000000000000002e-01 0.0000000000000000e+00 0.0000000000000000e+00
5.0000000000000000e-01 0.0000000000000000e+00 0.0000000000000000e+00
6.0000000000000009e-01 0.0000000000000000e+00 0.0000000000000000e+00
7.0000000000000007e-01 0.0000000000000000e+00 0.0000000000000000e+00
8.0000000000000004e-01 0.0000000000000000e+00 0.0000000000000000e+00
9.0000000000000002e-01 0.0000000000000000e+00 0.0000000000000000e+00
1.0000000000000000e+00 0.0000000000000000e+00 0.0000000000000000e+00
1.1000000000000001e+00 0.0000000000000000e+00 0.0000000000000000e+00
1.2000000000000002e+00 0.0000000000000000e+00 0.0000000000000000e+00
1.3000000000000000e+00 0.0000000000000000e+00 0.0000000000000000e+00
1.4000000000000001e+00 0.0000000000000000e+00 0.0000000000000000e+00
1.5000000000000000e+00 0.0000000000000000e+00 0.0000000000000000e+00
1.6000000000000001e+00 0.0000000000000000e+00 0.0000000000000000e+00
1.7000000000000002e+00 0.0000000000000000e+00 0.0000000000000000e+00
1.8000000000000000e+00 0.0000000000000000e+00 0.0000000000000000e+00
1.9000000000000001e+00 0.0000000000000000e+00 0.0000000000000000e+00
2.0000000000000000e+00 0.0000000000000000e+00 0.0000000000000000e+00
2.1000000000000001e+00 0.0000000000000000e+00 0.0000000000000000e+00
2.2000000000000002e+00 0.0000000000000000e+00 0.0000000000000000e+00
2.3000000000000003e+00 0.0000000000000000e+00 0.0000000000000000e+00
2.4000000000000004e+00 0.0000000000000000e+00 0.0000000000000000e+00
2.5000000000000000e+00 0.0000000000000000e+00 0.0000000000000000e+00
2.6000000000000001e+00 0.0000000000000000e+00 0.0000000000000000e+00
2.7000000000000002e+00 0.0000000000000000e+00 0.0000000000000000e+00
2.8000000000000003e+00 0.0000000000000000e+00 0.0000000000000000e+00
2.9000000000000004e+00 0.0000000000000000e+00 0.0000000000000000e+00
3.0000000000000000e+00 0.0000000000000000e+00 0.0000000000000000e+00
3.1000000000000001e+00 0.0000000000000000e+00 0.0000000000000000e+00
3.2000000000000002e+00 0.0000000000000000e+00 0.0000000000000000e+00
3.3000000000000003e+00 0.0000000000000000e+00 0.0000000000000000e+00
3.4000000000000004e+00 0.0000000000000000e+00 0.0000000000000000e+00
3.5000000000000000e+00 0.0000000000000000e+00 0.0000000000000000e+00
3.6000000000000001e+00 0.0000000000000000e+00 0.0000000000000000e+00
3.7000000000000002e+00 0.0000000000000000e+00 0.0000000000000000e+00
3.8000000000000003e+00 0.0000000000000000e+00 0.0000000000000000e+00
3.9000000000000004e+00 0.0000000000000000e+00 0.0000000000000000e+00
4.0000000000000000e+00 0.0000000000000000e+00 0.0000000000000000e+00
4.1000000000000005e+00 0.0000000000000000e+00 0.0000000000000000e+00
4.2000000000000002e+00 0.0000000000000000e+00 0.0000000000000000e+00
4.2999999999999998e+00 0.0000000000000000e+00 0.0000000000000000e+00
4.4000000000000004e+00 0.0000000000000000e+00 0.0000000000000000e+00
4.5000000000000000e+00 0.0000000000000000e+00 0.0000000000000000e+00
4.6000000000000005e+00 0.0000000000000000e+00 0.0000000000000000e+00
4.7000000000000002e+00 0.0000000000000000e+00 0.0000000000000000e+00
4.8000000000000007e+00 0.0000000000000000e+00 0.0000000000000000e+00
4.9000000000000004e+00 0.0000000000000000e+00 0.0000000000000000e+00
5.0000000000000000e+00 0.0000000000000000e+00 0.0000000000000000e+00
5.1000000000000005e+00 0.0000000000000000e+00 0.0000000000000000e+00
5.2000000000000002e+00 0.0000000000000000e+00 0.0000000000000000e+00
5.3000000000000007e+00 0.0000000000000000e+00 0.0000000000000000e+00
5.4000000000000004e+00 0.0000000000000000e+00 0.0000000000000000e+00
5.5000000000000000e+00 0.0000000000000000e+00 0.0000000000000000e+00
5.6000000000000005e+00 0.0000000000000000e+00 0.0000000000000000e+00
5.7000000000000002e+00 0.0000000000000000e+00 0.0000000000000000e+00
5.8000000000000007e+00 0.0000000000000000e+00 0.0000000000000000e+00
5.9000000000000004e+00 0.0000000000000000e+00 0.0000000000000000e+00
6.0000000000000000e+00 0.0000000000000000e+00 0.0000000000000000e+00
6.1000000000000005e+00 0.0000000000000000e+00 0.0000000000000000e+00
6.2000000000000002e+00 0.0000000000000000e+00 0.0000000000000000e+00
6.3000000000000007e+00 0.0000000000000000e+00 0.0000000000000000e+00
6.4000000000000004e+00 0.0000000000000000e+00 0.0000000000000000e+00
6.5000000000000000e+00 0.0000000000000000e+00 0.0000000000000000e+00
6.6000000000000005e+00 0.0000000000000000e+00 0.0000000000000000e+00
6.7000000000000002e+00 0.0000000000000000e+00 0.0000000000000000e+00
6.8000000000000007e+00 0.0000000000000000e+00 0.0000000000000000e+00
6.9000000000000004e+00 0.0000000000000000e+00 0.0000000000000000e+00
7.0000000000000000e+00 0.0000000000000000e+00 0.0000000000000000e+00
7.1000000000000005e+00 0.0000000000000000e+00 0.0000000000000000e+00
7.2000000000000002e+00 0.0000000000000000e+00 0.0000000000000000e+00
7.3000000000000007e+00 0.0000000000000000e+00 0.0000000000000000e+00
7.4000000000000004e+00 0.0000000000000000e+00 0.0000000000000000e+00
7.5000000000000000e+00 0.0000000000000000e+00 0.0000000000000000e+00
7.6000000000000005e+00 0.0000000000000000e+00 0.0000000000000000e+00
7.7000000000000002e+00 0.0000000000000000e+00 0.0000000000000000e+00
7.8000000000000007e+00 0.0000000000000000e+00 0.0000000000000000e+00
7.9000000000000004e+00 0.0000000000000000e+00 0.0000000000000000e+00
8.0000000000000000e+00 0.0000000000000000e+00 0.0000000000000000e+00
8.0999999999999996e+00 0.0000000000000000e+00 0.0000000000000000e+00
8.2000000000000011e+00 0.0000000000000000e+00 0.0000000000000000e+00
8.3000000000000007e+00 0.0000000000000000e+00 0.0000000000000000e+00
8.4000000000000004e+00 0.0000000000000000e+00 0.0000000000000000e+00
8.5000000000000000e+00 0.0000000000000000e+00 0.0000000000000000e+00
8.5999999999999996e+00 0.0000000000000000e+00 0.0000000000000000e+00
8.7000000000000011e+00 0.0000000000000000e+00 0.0000000000000000e+00
8.8000000000000007e+00 0.0000000000000000e+00 0.0000000000000000e+00
8.9000000000000004e+00 0.0000000000000000e+00 0.0000000000000000e+00
9.0000000000000000e+00 0.0000000000000000e+00 0.0000000000000000e+00
9.0999999999999996e+00 0.0000000000000000e+00 0.0000000000000000e+00
9.2000000000000011e+00 0.0000000000000000e+00 0.0000000000000000e+00
9.3000000000000007e+00 0.0000000000000000e+00 0.0000000000000000e+00
9.4000000000000004e+00 0.0000000000000000e+00 0.0000000000000000e+00
9.5000000000000000e+00 0.0000000000000000e+00 0.0000000000000000e+00
9.6000000000000014e+00 0.0000000000000000e+00 0.0000000000000000e+00
9.7000000000000011e+00 0.0000000000000000e+00 0.0000000000000000e+00
9.8000000000000007e+00 0.0000000000000000e+00 0.0000000000000000e+00
9.9000000000000004e+00 0.0000000000000000e+00 0.0000000000000000e+00
1.0000000000000000e+01 0.0000000000000000e+00 0.0000000000000000e+00

POINT_DATA 101

VECTORS velocity float
6.1794118924200934e+00 0.0000000000000000e+00 0.0000000000000000e+00
6.1789462033339637e+00 0.0000000000000000e+00 0.0000000000000000e+00
6.1784788583296937e+00 0.0000000000000000e+00 0.0000000000000000e+00
6.1780114965133297e+00 0.0000000000000000e+00 0.0000000000000000e+00
6.1775472184564588e+00 0.0000000000000000e+00 0.0000000000000000e+00
6.1770865334791383e+00 0.0000000000000000e+00 0.0000000000000000e+00
6.1766312158653793e+00 0.0000000000000000e+00 0.0000000000000000e+00
6.1761861387601922e+00 0.0000000000000000e+00 0.0000000000000000e+00
6.1757462859194217e+00 0.0000000000000000e+00 0.0000000000000000e+00
6.1753039371277350e+00 0.0000000000000000e+00 0.0000000000000000e+00
6.1748620528023643e+00 0.0000000000000000e+00 0.0000000000000000e+00
6.1744229192375082e+00 0.0000000000000000e+00 0.0000000000000000e+00
6.1739859902447778e+00 0.0000000000000000e+00 0.0000000000000000e+00
6.1735524610650465e+00 0.0000000000000000e+00 0.0000000000000000e+00
6.1731246307693928e+00 0.0000000000000000e+00 0.0000000000000000e+00
6.1727027166504529e+00 0.0000000000000000e+00 0.0000000000000000e+00
6.1722869898725063e+00 0.0000000000000000e+00 0.0000000000000000e+00
6.1718760432162112e+00 0.0000000000000000e+00 0.0000000000000000e+00
6.1714665841292353e+00 0.0000000000000000e+00 0.0000000000000000e+00
6.1710574452865341e+00 0.0000000000000000e+00 0.0000000000000000e+00
6.1706506346393786e+00 0.0000000000000000e+00 0.0000000000000000e+00
6.1702492391562123e+00 0.0000000000000000e+00 0.0000000000000000e+00
6.1698551024077339e+00 0.0000000000000000e+00 0.0000000000000000e+00
6.1694692398890272e+00 0.0000000000000000e+00 0.0000000000000000e+00
6.1690841275679320e+00 0.0000000000000000e+00 0.0000000000000000e+00
6.1686989256059377e+00 0.0000000000000000e+00 0.0000000000000000e+00
6.1683202297737303e+00 0.0000000000000000e+00 0.0000000000000000e+00
6.1679462357778174e+00 0.0000000000000000e+00 0.0000000000000000e+00
6.1675767720215093e+00 0.0000000000000000e+00 0.0000000000000000e+00
6.1672111620274270e+00 0.0000000000000000e+00 0.0000000000000000e+00
6.1668489941128142e+00 0.0000000000000000e+00 0.0000000000000000e+00
6.1664906745482719e+00 0.0000000000000000e+00 0.0000000000000000e+00
6.1661365890491604e+00 0.0000000000000000e+00 0.0000000000000000e+00
6.1657873148410918e+00 0.0000000000000000e+00 0.0000000000000000e+00
6.1654427032575478e+00 0.0000000000000000e+00 0.0000000000000000e+00
6.1651025378168942e+00 0.0000000000000000e+00 0.0000000000000000e+00
6.1647667861236535e+00 0.0000000000000000e+00 0.0000000000000000e+00
6.1644353649973267e+00 0.0000000000000000e+00 0.0000000000000000e+00
6.1641084134516761e+00 0.0000000000000000e+00 0.0000000000000000e+00
6.1637854046399561e+00 0.0000000000000000e+00 0.0000000000000000e+00
6.1634658989514453e+00 0.0000000000000000e+00 0.0000000000000000e+00
6.1631504007769209e+00 0.0000000000000000e+00 0.0000000000000000e+00
6.1628390142877363e+00 0.0000000000000000e+00 0.0000000000000000e+00
6.1625318012785861e+00 0.0000000000000000e+00 0.0000000000000000e+00
6.1622287996355416e+00 0.0000000000000000e+00 0.0000000000000000e+00
6.1619300343477859e+00 0.0000000000000000e+00 0.0000000000000000e+00
6.1616355217837864e+00 0.0000000000000000e+00 0.0000000000000000e+00
6.1613452725145557e+00 0.0000000000000000e+00 0.0000000000000000e+00
6.1610592956172878e+00 0.0000000000000000e+00 0.0000000000000000e+00
6.1607775984670399e+00 0.0000000000000000e+00 0.0000000000000000e+00
6.1605001868719489e+00 0.0000000000000000e+00 0.0000000000000000e+00
6.1602270663667413e+00 0.0000000000000000e+00 0.0000000000000000e+00
6.1599582424138006e+00 0.0000000000000000e+00 0.0000000000000000e+00
6.1596937196189332e+00 0.0000000000000000e+00 0.0000000000000000e+00
6.1594335027706739e+00 0.0000000000000000e+00 0.0000000000000000e+00
6.1591775970273757e+00 0.0000000000000000e+00 0.0000000000000000e+00
6.1589260058975119e+00 0.0000000000000000e+00 0.0000000000000000e+00
6.1586787334933621e+00 0.0000000000000000e+00 0.0000000000000000e+00
6.1584357850527089e+00 0.0000000000000000e+00 0.0000000000000000e+00
6.1581971648475990e+00 0.0000000000000000e+00 0.0000000000000000e+00
6.1579628768112924e+00 0.0000000000000000e+00 0.0000000000000000e+00
6.1577329244684931e+00 0.0000000000000000e+00 0.0000000000000000e+00
6.1575073114177954e+00 0.0000000000000000e+00 0.0000000000000000e+00
6.1572860411909032e+00 0.0000000000000000e+00 0.0000000000000000e+00
6.1570691173317815e+00 0.0000000000000000e+00 0.0000000000000000e+00
6.1568565433786615e+00 0.0000000000000000e+00 0.0000000000000000e+00
6.1566483225575936e+00 0.0000000000000000e+00 0.0000000000000000e+00
6.1564444582652973e+00 0.0000000000000000e+00 0.0000000000000000e+00
6.1562449537477351e+00 0.0000000000000000e+00 0.0000000000000000e+00
6.1560498119240368e+00 0.0000000000000000e+00 0.0000000000000000e+00
6.1558590356316438e+00 0.0000000000000000e+00 0.0000000000000000e+00
6.1556726274740559e+00 0.0000000000000000e+00 0.0000000000000000e+00
6.1554905899350647e+00 0.0000000000000000e+00 0.0000000000000000e+00
6.1553129256800938e+00 0.0000000000000000e+00 0.0000000000000000e+00
6.1551396370643188e+00 0.0000000000000000e+00 0.0000000000000000e+00
6.1549707264531230e+00 0.0000000000000000e+00 0.0000000000000000e+00
6.1548061965224630e+00 0.0000000000000000e+00 0.0000000000000000e+00
6.1546460489904495e+00 0.0000000000000000e+00 0.0000000000000000e+00
6.1544902859098993e+00 0.0000000000000000e+00 0.0000000000000000e+00
6.1543389094557748e+00 0.0000000000000000e+00 0.0000000000000000e+00
6.1541919208888407e+00 0.0000000000000000e+00 0.0000000000000000e+00
6.1540493216387899e+00 0.0000000000000000e+00 0.0000000000000000e+00
6.1539111131558384e+00 0.0000000000000000e+00 0.0000000000000000e+00
6.1537772988466033e+00 0.0000000000000000e+00 0.0000000000000000e+00
6.1536478793537341e+00 0.0000000000000000e+00 0.0000000000000000e+00
6.1535228526138734e+00 0.0000000000000000e+00 0.0000000000000000e+00
6.1534022199168072e+00 0.0000000000000000e+00 0.0000000000000000e+00
6.1532859849454722e+00 0.0000000000000000e+00 0.0000000000000000e+00
6.1531741489303018e+00 0.0000000000000000e+00 0.0000000000000000e+00
6.1530667129489993e+00 0.0000000000000000e+00 0.0000000000000000e+00
6.1529636768250784e+00 0.0000000000000000e+00 0.0000000000000000e+00
6.1528650395722622e+00 0.0000000000000000e+00 0.0000000000000000e+00
6.1527708002238066e+00 0.0000000000000000e+00 0.0000000000000000e+00
6.1526809687716213e+00 0.0000000000000000e+00 0.0000000000000000e+00
6.1525955233373884e+00 0.0000000000000000e+00 0.0000000000000000e+00
6.1525145160068186e+00 0.0000000000000000e+00 0.0000000000000000e+00
6.1524378114837850e+00 0.0000000000000000e+00 0.0000000000000000e+00
6.1523657614704161e+00 0.0000000000000000e+00 0.0000000000000000e+00
6.1522974541782300e+00 0.0000000000000000e+00 0.0000000000000000e+00
6.1522352456512523e+00 0.0000000000000000e+00 0.0000000000000000e+00
6.1521730371242747e+00 0.0000000000000000e+00 0.0000000000000000e+00


SCALARS pressure float
LOOKUP_TABLE default
-9.1122455328561536e+00
-9.0177174690209831e+00
-8.9231894051858127e+00
-8.8286998942589978e+00
-8.7342622957688771e+00
-8.6398914236469260e+00
-8.5455918909655360e+00
-8.4513713344051915e+00
-8.3572542888809203e+00
-8.2632257021014173e+00
-8.1692463530720048e+00
-8.0753183129050026e+00
-7.9814523079895219e+00
-7.8876482287889393e+00
-7.7939107750297012e+00
-7.7002516163201111e+00
-7.6066749952463377e+00
-7.5131842458870048e+00
-7.4197746451621471e+00
-7.3264292796606956e+00
-7.2331372940499810e+00
-7.1399043719788224e+00
-7.0467459954307836e+00
-6.9536752862731177e+00
-6.8607014501954335e+00
-6.7677931532884967e+00
-6.6749373432504946e+00
-6.5821598708602016e+00
-6.4894597156856850e+00
-6.3968357607830004e+00
-6.3042845199227600e+00
-6.2118030725578368e+00
-6.1193922908053153e+00
-6.0270541457510527e+00
-5.9347920320461851e+00
-5.8426063896838230e+00
-5.7504964165223704e+00
-5.6584617571102491e+00
-5.5665019093189141e+00
-5.4746173552660089e+00
-5.3828057036937196e+00
-5.2910640091507624e+00
-5.1993935408615357e+00
-5.1077949655434933e+00
-5.0162686064863742e+00
-4.9248145901143401e+00
-4.8334329321687299e+00
-4.7421235768839738e+00
-4.6508864184001242e+00
-4.5597213258003384e+00
-4.4686281491979756e+00
-4.3776067216457033e+00
-4.2866568653110360e+00
-4.1957783940066244e+00
-4.1049711102083455e+00
-4.0142348091934030e+00
-3.9235692810900815e+00
-3.8329743026188909e+00
-3.7424496448059186e+00
-3.6519950774706889e+00
-3.5616103612852448e+00
-3.4712952483994091e+00
-3.3810494821998294e+00
-3.2908727997842342e+00
-3.2007649322143279e+00
-3.1107256049248830e+00
-3.0207545377924720e+00
-2.9308514438672515e+00
-2.8410160312663097e+00
-2.7512480023311787e+00
-2.6615470526352922e+00
-2.5719128719201176e+00
-2.4823451436875388e+00
-2.3928435457402015e+00
-2.3034077518926948e+00
-2.2140374301475987e+00
-2.1247322441205774e+00
-2.0354918543878817e+00
-1.9463159137032999e+00
-1.8572040708021311e+00
-1.7681559709168622e+00
-1.6791712520345201e+00
-1.5902495482493566e+00
-1.5013904902237336e+00
-1.4125937137036266e+00
-1.3238588415764252e+00
-1.2351854783875760e+00
-1.1465732375607778e+00
-1.0580217425561937e+00
-9.6953060619753206e-01
-8.8109943629513443e-01
-7.9272783187382112e-01
-7.0441538444360541e-01
-6.1616168149311534e-01
-5.2796635727365104e-01
-4.3982891422770831e-01
-3.5174914796151263e-01
-2.6372609794805391e-01
-1.7576076073787278e-01
-8.7849063466607299e-02
0.0000000000000000e+00


SCALARS diameter float
LOOKUP_TABLE default
9.9918111595204484e-01
9.9919000438082484e-01
9.9919821011296250e-01
9.9920703671161404e-01
9.9921545455880034e-01
9.9922377389959605e-01
9.9923179296353681e-01
9.9923841558279058e-01
9.9924401671150831e-01
9.9925232772127959e-01
9.9926141518834044e-01
9.9927042291226464e-01
9.9927952947059406e-01
9.9928892641023681e-01
9.9929752273136985e-01
9.9930569654900814e-01
9.9931335694925905e-01
9.9932085673948257e-01
9.9932912969071419e-01
9.9933847377138363e-01
9.9934803960920027e-01
9.9935706813849301e-01
9.9936508464615315e-01
9.9937226106927080e-01
9.9937977243324372e-01
9.9938970703510666e-01
9.9939806429780609e-01
9.9940629342609000e-01
9.9941451690361582e-01
9.9942275599794195e-01
9.9943127657708719e-01
9.9943977617438762e-01
9.9944825664214210e-01
9.9945650628301874e-01
9.9946464557073134e-01
9.9947277455984140e-01
9.9948089280168240e-01
9.9948900066285662e-01
9.9949709747775883e-01
9.9950520312755320e-01
9.9951358700595705e-01
9.9952195512349462e-01
9.9953030935789522e-01
9.9953865077945148e-01
9.9954697989237695e-01
9.9955529690276235e-01
9.9956360185907356e-01
9.9957189554584491e-01
9.9958017799946408e-01
9.9958844931871726e-01
9.9959670979141624e-01
9.9960495973073082e-01
9.9961319915425073e-01
9.9962142838305634e-01
9.9962964762536499e-01
9.9963785687984308e-01
9.9964605645861659e-01
9.9965424687832072e-01
9.9966242780298076e-01
9.9967059946236425e-01
9.9967876207715778e-01
9.9968691593779491e-01
9.9969506128059138e-01
9.9970319823189369e-01
9.9971132702713916e-01
9.9971944774500010e-01
9.9972756063996937e-01
9.9973566583948026e-01
9.9974376348108274e-01
9.9975185377828735e-01
9.9975993694766674e-01
9.9976801317459796e-01
9.9977608271818141e-01
9.9978414568274021e-01
9.9979220224787202e-01
9.9980025261706529e-01
9.9980829682214778e-01
9.9981633511327217e-01
9.9982436777244910e-01
9.9983239481172281e-01
9.9984041646201594e-01
9.9984843310943194e-01
9.9985644476353308e-01
9.9986445141756009e-01
9.9987245278780357e-01
9.9988045054312802e-01
9.9988844457832360e-01
9.9989643427455244e-01
9.9990441961388865e-01
9.9991240099267753e-01
9.9992037856932514e-01
9.9992835315055573e-01
9.9993632499889051e-01
9.9994429289156328e-01
9.9995225810585275e-01
9.9996022083998415e-01
9.9996818099024598e-01
9.9997613882375458e-01
9.9998409439331915e-01
9.9999204842848610e-01
1.0000000016720019e+00


SCALARS iters float
LOOKUP_TABLE default
3.0000000000000000e+00
3.0000000000000000e+00
3.0000000000000000e+00
3.0000000000000000e+00
3.0000000000000000e+00
3.0000000000000000e+00
3.0000000000000000e+00
3.0000000000000000e+00
3.0000000000000000e+00
3.0000000000000000e+00
3.0000000000000000e+00
3.0000000000000000e+00
3.0000000000000000e+00
3.0000000000000000e+00
3.0000000000000000e+00
3.0000000000000000e+00
3.0000000000000000e+00
3.0000000000000000e+00
3.0000000000000000e+00
3.0000000000000000e+00
3.0000000000000000e+00
3.0000000000000000e+00
3.0000000000000000e+00
3.0000000000000000e+00
3.0000000000000000e+00
3.0000000000000000e+00
3.0000000000000000e+00
3.0000000000000000e+00
3.0000000000000000e+00
3.0000000000000000e+00
3.0000000000000000e+00
3.0000000000000000e+00
3.0000000000000000e+00
3.0000000000000000e+00
3.0000000000000000e+00
3.0000000000000000e+00
3.0000000000000000e+00
3.0000000000000000e+00
3.0000000000000000e+00
3.0000000000000000e+00
3.0000000000000000e+00
3.0000000000000000e+00
3.0000000000000000e+00
3.0000000000000000e+00
3.0000000000000000e+00
3.0000000000000000e+00
3.0000000000000000e+00
3.0000000000000000e+00
3.0000000000000000e+00
3.0000000000000000e+00
3.0000000000000000e+00
3.0000000000000000e+00
3.0000000000000000e+00
3.0000000000000000e+00
3.0000000000000000e+00
3.0000000000000000e+00
3.0000000000000000e+00
3.0000000000000000e+00
3.0000000000000000e+00
3.0000000000000000e+00
3.0000000000000000e+00
3.0000000000000000e+00
3.0000000000000000e+00
3.0000000000000000e+00
3.0000000000000000e+00
3.0000000000000000e+00
3.0000000000000000e+00
3.0000000000000000e+00
3.0000000000000000e+00
3.0000000000000000e+00
3.0000000000000000e+00
3.0000000000000000e+00
3.0000000000000000e+00
3.0000000000000000e+00
3.0000000000000000e+00
3.0000000000000000e+00
3.0000000000000000e+00
3.0000000000000000e+00
3.0000000000000000e+00
3.0000000000000000e+00
3.0000000000000000e+00
3.0000000000000000e+00
3.0000000000000000e+00
3.0000000000000000e+00
3.0000000000000000e+00
3.0000000000000000e+00
3.0000000000000000e+00
3.0000000000000000e+00
3.0000000000000000e+00
3.0000000000000000e+00
3.0000000000000000e+00
3.0000000000000000e+00
3.0000000000000000e+00
3.0000000000000000e+00
3.0000000000000000e+00
3.0000000000000000e+00
3.0000000000000000e+00
3.0000000000000000e+00
3.0000000000000000e+00
3.0000000000000000e+00
3.0000000000000000e+00


