# vtk DataFile Version 2.0

ASCII

DATASET UNSTRUCTURED_GRID

POINTS 101 float

0.0000000000000000e+00 0.0000000000000000e+00 0.0000000000000000e+00
1.0000000000000001e-01 0.0000000000000000e+00 0.0000000000000000e+00
2.0000000000000001e-01 0.0000000000000000e+00 0.0000000000000000e+00
3.0000000000000004e-01 0.0000000000000000e+00 0.0000000000000000e+00
4.0000000000000002e-01 0.0000000000000000e+00 0.0000000000000000e+00
5.0000000000000000e-01 0.0000000000000000e+00 0.0000000000000000e+00
6.0000000000000009e-01 0.0000000000000000e+00 0.0000000000000000e+00
7.0000000000000007e-01 0.0000000000000000e+00 0.0000000000000000e+00
8.0000000000000004e-01 0.0000000000000000e+00 0.0000000000000000e+00
9.0000000000000002e-01 0.0000000000000000e+00 0.0000000000000000e+00
1.0000000000000000e+00 0.0000000000000000e+00 0.0000000000000000e+00
1.1000000000000001e+00 0.0000000000000000e+00 0.0000000000000000e+00
1.2000000000000002e+00 0.0000000000000000e+00 0.0000000000000000e+00
1.3000000000000000e+00 0.0000000000000000e+00 0.0000000000000000e+00
1.4000000000000001e+00 0.0000000000000000e+00 0.0000000000000000e+00
1.5000000000000000e+00 0.0000000000000000e+00 0.0000000000000000e+00
1.6000000000000001e+00 0.0000000000000000e+00 0.0000000000000000e+00
1.7000000000000002e+00 0.0000000000000000e+00 0.0000000000000000e+00
1.8000000000000000e+00 0.0000000000000000e+00 0.0000000000000000e+00
1.9000000000000001e+00 0.0000000000000000e+00 0.0000000000000000e+00
2.0000000000000000e+00 0.0000000000000000e+00 0.0000000000000000e+00
2.1000000000000001e+00 0.0000000000000000e+00 0.0000000000000000e+00
2.2000000000000002e+00 0.0000000000000000e+00 0.0000000000000000e+00
2.3000000000000003e+00 0.0000000000000000e+00 0.0000000000000000e+00
2.4000000000000004e+00 0.0000000000000000e+00 0.0000000000000000e+00
2.5000000000000000e+00 0.0000000000000000e+00 0.0000000000000000e+00
2.6000000000000001e+00 0.0000000000000000e+00 0.0000000000000000e+00
2.7000000000000002e+00 0.0000000000000000e+00 0.0000000000000000e+00
2.8000000000000003e+00 0.0000000000000000e+00 0.0000000000000000e+00
2.9000000000000004e+00 0.0000000000000000e+00 0.0000000000000000e+00
3.0000000000000000e+00 0.0000000000000000e+00 0.0000000000000000e+00
3.1000000000000001e+00 0.0000000000000000e+00 0.0000000000000000e+00
3.2000000000000002e+00 0.0000000000000000e+00 0.0000000000000000e+00
3.3000000000000003e+00 0.0000000000000000e+00 0.0000000000000000e+00
3.4000000000000004e+00 0.0000000000000000e+00 0.0000000000000000e+00
3.5000000000000000e+00 0.0000000000000000e+00 0.0000000000000000e+00
3.6000000000000001e+00 0.0000000000000000e+00 0.0000000000000000e+00
3.7000000000000002e+00 0.0000000000000000e+00 0.0000000000000000e+00
3.8000000000000003e+00 0.0000000000000000e+00 0.0000000000000000e+00
3.9000000000000004e+00 0.0000000000000000e+00 0.0000000000000000e+00
4.0000000000000000e+00 0.0000000000000000e+00 0.0000000000000000e+00
4.1000000000000005e+00 0.0000000000000000e+00 0.0000000000000000e+00
4.2000000000000002e+00 0.0000000000000000e+00 0.0000000000000000e+00
4.2999999999999998e+00 0.0000000000000000e+00 0.0000000000000000e+00
4.4000000000000004e+00 0.0000000000000000e+00 0.0000000000000000e+00
4.5000000000000000e+00 0.0000000000000000e+00 0.0000000000000000e+00
4.6000000000000005e+00 0.0000000000000000e+00 0.0000000000000000e+00
4.7000000000000002e+00 0.0000000000000000e+00 0.0000000000000000e+00
4.8000000000000007e+00 0.0000000000000000e+00 0.0000000000000000e+00
4.9000000000000004e+00 0.0000000000000000e+00 0.0000000000000000e+00
5.0000000000000000e+00 0.0000000000000000e+00 0.0000000000000000e+00
5.1000000000000005e+00 0.0000000000000000e+00 0.0000000000000000e+00
5.2000000000000002e+00 0.0000000000000000e+00 0.0000000000000000e+00
5.3000000000000007e+00 0.0000000000000000e+00 0.0000000000000000e+00
5.4000000000000004e+00 0.0000000000000000e+00 0.0000000000000000e+00
5.5000000000000000e+00 0.0000000000000000e+00 0.0000000000000000e+00
5.6000000000000005e+00 0.0000000000000000e+00 0.0000000000000000e+00
5.7000000000000002e+00 0.0000000000000000e+00 0.0000000000000000e+00
5.8000000000000007e+00 0.0000000000000000e+00 0.0000000000000000e+00
5.9000000000000004e+00 0.0000000000000000e+00 0.0000000000000000e+00
6.0000000000000000e+00 0.0000000000000000e+00 0.0000000000000000e+00
6.1000000000000005e+00 0.0000000000000000e+00 0.0000000000000000e+00
6.2000000000000002e+00 0.0000000000000000e+00 0.0000000000000000e+00
6.3000000000000007e+00 0.0000000000000000e+00 0.0000000000000000e+00
6.4000000000000004e+00 0.0000000000000000e+00 0.0000000000000000e+00
6.5000000000000000e+00 0.0000000000000000e+00 0.0000000000000000e+00
6.6000000000000005e+00 0.0000000000000000e+00 0.0000000000000000e+00
6.7000000000000002e+00 0.0000000000000000e+00 0.0000000000000000e+00
6.8000000000000007e+00 0.0000000000000000e+00 0.0000000000000000e+00
6.9000000000000004e+00 0.0000000000000000e+00 0.0000000000000000e+00
7.0000000000000000e+00 0.0000000000000000e+00 0.0000000000000000e+00
7.1000000000000005e+00 0.0000000000000000e+00 0.0000000000000000e+00
7.2000000000000002e+00 0.0000000000000000e+00 0.0000000000000000e+00
7.3000000000000007e+00 0.0000000000000000e+00 0.0000000000000000e+00
7.4000000000000004e+00 0.0000000000000000e+00 0.0000000000000000e+00
7.5000000000000000e+00 0.0000000000000000e+00 0.0000000000000000e+00
7.6000000000000005e+00 0.0000000000000000e+00 0.0000000000000000e+00
7.7000000000000002e+00 0.0000000000000000e+00 0.0000000000000000e+00
7.8000000000000007e+00 0.0000000000000000e+00 0.0000000000000000e+00
7.9000000000000004e+00 0.0000000000000000e+00 0.0000000000000000e+00
8.0000000000000000e+00 0.0000000000000000e+00 0.0000000000000000e+00
8.0999999999999996e+00 0.0000000000000000e+00 0.0000000000000000e+00
8.2000000000000011e+00 0.0000000000000000e+00 0.0000000000000000e+00
8.3000000000000007e+00 0.0000000000000000e+00 0.0000000000000000e+00
8.4000000000000004e+00 0.0000000000000000e+00 0.0000000000000000e+00
8.5000000000000000e+00 0.0000000000000000e+00 0.0000000000000000e+00
8.5999999999999996e+00 0.0000000000000000e+00 0.0000000000000000e+00
8.7000000000000011e+00 0.0000000000000000e+00 0.0000000000000000e+00
8.8000000000000007e+00 0.0000000000000000e+00 0.0000000000000000e+00
8.9000000000000004e+00 0.0000000000000000e+00 0.0000000000000000e+00
9.0000000000000000e+00 0.0000000000000000e+00 0.0000000000000000e+00
9.0999999999999996e+00 0.0000000000000000e+00 0.0000000000000000e+00
9.2000000000000011e+00 0.0000000000000000e+00 0.0000000000000000e+00
9.3000000000000007e+00 0.0000000000000000e+00 0.0000000000000000e+00
9.4000000000000004e+00 0.0000000000000000e+00 0.0000000000000000e+00
9.5000000000000000e+00 0.0000000000000000e+00 0.0000000000000000e+00
9.6000000000000014e+00 0.0000000000000000e+00 0.0000000000000000e+00
9.7000000000000011e+00 0.0000000000000000e+00 0.0000000000000000e+00
9.8000000000000007e+00 0.0000000000000000e+00 0.0000000000000000e+00
9.9000000000000004e+00 0.0000000000000000e+00 0.0000000000000000e+00
1.0000000000000000e+01 0.0000000000000000e+00 0.0000000000000000e+00

POINT_DATA 101

VECTORS velocity float
6.6186695014350443e+00 0.0000000000000000e+00 0.0000000000000000e+00
6.6184220427090699e+00 0.0000000000000000e+00 0.0000000000000000e+00
6.6181700185395966e+00 0.0000000000000000e+00 0.0000000000000000e+00
6.6179119690299038e+00 0.0000000000000000e+00 0.0000000000000000e+00
6.6176505721346182e+00 0.0000000000000000e+00 0.0000000000000000e+00
6.6173898638465278e+00 0.0000000000000000e+00 0.0000000000000000e+00
6.6171338103962718e+00 0.0000000000000000e+00 0.0000000000000000e+00
6.6168842404333672e+00 0.0000000000000000e+00 0.0000000000000000e+00
6.6166380261881175e+00 0.0000000000000000e+00 0.0000000000000000e+00
6.6163927277945573e+00 0.0000000000000000e+00 0.0000000000000000e+00
6.6161495867767615e+00 0.0000000000000000e+00 0.0000000000000000e+00
6.6159092281935257e+00 0.0000000000000000e+00 0.0000000000000000e+00
6.6156729747787262e+00 0.0000000000000000e+00 0.0000000000000000e+00
6.6154438816044161e+00 0.0000000000000000e+00 0.0000000000000000e+00
6.6152220213927233e+00 0.0000000000000000e+00 0.0000000000000000e+00
6.6150065548796757e+00 0.0000000000000000e+00 0.0000000000000000e+00
6.6147927380532838e+00 0.0000000000000000e+00 0.0000000000000000e+00
6.6145775277166816e+00 0.0000000000000000e+00 0.0000000000000000e+00
6.6143649901319614e+00 0.0000000000000000e+00 0.0000000000000000e+00
6.6141568000727489e+00 0.0000000000000000e+00 0.0000000000000000e+00
6.6139524577016529e+00 0.0000000000000000e+00 0.0000000000000000e+00
6.6137523115416279e+00 0.0000000000000000e+00 0.0000000000000000e+00
6.6135575588836168e+00 0.0000000000000000e+00 0.0000000000000000e+00
6.6133686458208807e+00 0.0000000000000000e+00 0.0000000000000000e+00
6.6131845771741489e+00 0.0000000000000000e+00 0.0000000000000000e+00
6.6130032163750760e+00 0.0000000000000000e+00 0.0000000000000000e+00
6.6128246499739749e+00 0.0000000000000000e+00 0.0000000000000000e+00
6.6126495549138502e+00 0.0000000000000000e+00 0.0000000000000000e+00
6.6124782493372098e+00 0.0000000000000000e+00 0.0000000000000000e+00
6.6123100189482136e+00 0.0000000000000000e+00 0.0000000000000000e+00
6.6121445158574206e+00 0.0000000000000000e+00 0.0000000000000000e+00
6.6119823327935636e+00 0.0000000000000000e+00 0.0000000000000000e+00
6.6118243764823124e+00 0.0000000000000000e+00 0.0000000000000000e+00
6.6116716249967551e+00 0.0000000000000000e+00 0.0000000000000000e+00
6.6115236041079344e+00 0.0000000000000000e+00 0.0000000000000000e+00
6.6113798767884440e+00 0.0000000000000000e+00 0.0000000000000000e+00
6.6112403495752998e+00 0.0000000000000000e+00 0.0000000000000000e+00
6.6111048452079553e+00 0.0000000000000000e+00 0.0000000000000000e+00
6.6109735776147005e+00 0.0000000000000000e+00 0.0000000000000000e+00
6.6108456391908641e+00 0.0000000000000000e+00 0.0000000000000000e+00
6.6107203359006634e+00 0.0000000000000000e+00 0.0000000000000000e+00
6.6105985002992131e+00 0.0000000000000000e+00 0.0000000000000000e+00
6.6104802933285853e+00 0.0000000000000000e+00 0.0000000000000000e+00
6.6103658127294311e+00 0.0000000000000000e+00 0.0000000000000000e+00
6.6102551191918977e+00 0.0000000000000000e+00 0.0000000000000000e+00
6.6101482503111404e+00 0.0000000000000000e+00 0.0000000000000000e+00
6.6100452298134744e+00 0.0000000000000000e+00 0.0000000000000000e+00
6.6099460721775518e+00 0.0000000000000000e+00 0.0000000000000000e+00
6.6098507880126611e+00 0.0000000000000000e+00 0.0000000000000000e+00
6.6097593846420697e+00 0.0000000000000000e+00 0.0000000000000000e+00
6.6096718664335175e+00 0.0000000000000000e+00 0.0000000000000000e+00
6.6095882379963609e+00 0.0000000000000000e+00 0.0000000000000000e+00
6.6095085019431492e+00 0.0000000000000000e+00 0.0000000000000000e+00
6.6094326602268749e+00 0.0000000000000000e+00 0.0000000000000000e+00
6.6093607154530467e+00 0.0000000000000000e+00 0.0000000000000000e+00
6.6092926700877621e+00 0.0000000000000000e+00 0.0000000000000000e+00
6.6092285256292254e+00 0.0000000000000000e+00 0.0000000000000000e+00
6.6091682837592645e+00 0.0000000000000000e+00 0.0000000000000000e+00
6.6091119467891684e+00 0.0000000000000000e+00 0.0000000000000000e+00
6.6090595161574237e+00 0.0000000000000000e+00 0.0000000000000000e+00
6.6090109930795915e+00 0.0000000000000000e+00 0.0000000000000000e+00
6.6089663794883462e+00 0.0000000000000000e+00 0.0000000000000000e+00
6.6089256770880844e+00 0.0000000000000000e+00 0.0000000000000000e+00
6.6088888869246878e+00 0.0000000000000000e+00 0.0000000000000000e+00
6.6088560103673801e+00 0.0000000000000000e+00 0.0000000000000000e+00
6.6088270487692737e+00 0.0000000000000000e+00 0.0000000000000000e+00
6.6088020033161516e+00 0.0000000000000000e+00 0.0000000000000000e+00
6.6087808753381685e+00 0.0000000000000000e+00 0.0000000000000000e+00
6.6087636660212015e+00 0.0000000000000000e+00 0.0000000000000000e+00
6.6087503763647959e+00 0.0000000000000000e+00 0.0000000000000000e+00
6.6087410074172759e+00 0.0000000000000000e+00 0.0000000000000000e+00
6.6087355602639093e+00 0.0000000000000000e+00 0.0000000000000000e+00
6.6087340359177729e+00 0.0000000000000000e+00 0.0000000000000000e+00
6.6087364351981304e+00 0.0000000000000000e+00 0.0000000000000000e+00
6.6087427589250831e+00 0.0000000000000000e+00 0.0000000000000000e+00
6.6087530077731964e+00 0.0000000000000000e+00 0.0000000000000000e+00
6.6087671824299346e+00 0.0000000000000000e+00 0.0000000000000000e+00
6.6087852835377356e+00 0.0000000000000000e+00 0.0000000000000000e+00
6.6088073116828108e+00 0.0000000000000000e+00 0.0000000000000000e+00
6.6088332676592128e+00 0.0000000000000000e+00 0.0000000000000000e+00
6.6088631521219430e+00 0.0000000000000000e+00 0.0000000000000000e+00
6.6088969655042993e+00 0.0000000000000000e+00 0.0000000000000000e+00
6.6089347080911249e+00 0.0000000000000000e+00 0.0000000000000000e+00
6.6089763799199366e+00 0.0000000000000000e+00 0.0000000000000000e+00
6.6090219815770928e+00 0.0000000000000000e+00 0.0000000000000000e+00
6.6090715137064917e+00 0.0000000000000000e+00 0.0000000000000000e+00
6.6091249769704215e+00 0.0000000000000000e+00 0.0000000000000000e+00
6.6091823705029169e+00 0.0000000000000000e+00 0.0000000000000000e+00
6.6092436939645101e+00 0.0000000000000000e+00 0.0000000000000000e+00
6.6093089471638198e+00 0.0000000000000000e+00 0.0000000000000000e+00
6.6093781314741111e+00 0.0000000000000000e+00 0.0000000000000000e+00
6.6094512486318679e+00 0.0000000000000000e+00 0.0000000000000000e+00
6.6095282947924474e+00 0.0000000000000000e+00 0.0000000000000000e+00
6.6096092762920060e+00 0.0000000000000000e+00 0.0000000000000000e+00
6.6096941755452665e+00 0.0000000000000000e+00 0.0000000000000000e+00
6.6097830357966609e+00 0.0000000000000000e+00 0.0000000000000000e+00
6.6098757426449604e+00 0.0000000000000000e+00 0.0000000000000000e+00
6.6099725953284878e+00 0.0000000000000000e+00 0.0000000000000000e+00
6.6100728055087217e+00 0.0000000000000000e+00 0.0000000000000000e+00
6.6101784402735735e+00 0.0000000000000000e+00 0.0000000000000000e+00
6.6102840750384262e+00 0.0000000000000000e+00 0.0000000000000000e+00


SCALARS pressure float
LOOKUP_TABLE default
1.9600107016388524e+01
1.9405952444724722e+01
1.9211797873060924e+01
1.9017649568292597e+01
1.8823519189481573e+01
1.8629400092968073e+01
1.8435273143243855e+01
1.8241115465428170e+01
1.8046912102425559e+01
1.7852672529929027e+01
1.7658410495608550e+01
1.7464124428653506e+01
1.7269811012753586e+01
1.7075463092558664e+01
1.6881064103629466e+01
1.6686608204407619e+01
1.6492097017211311e+01
1.6297552583950296e+01
1.6102995428731273e+01
1.5908413135741750e+01
1.5713794087405294e+01
1.5519136848115766e+01
1.5324439151844553e+01
1.5129694441294770e+01
1.4934898294680984e+01
1.4740054198083511e+01
1.4545173269342136e+01
1.4350258209569166e+01
1.4155306605527516e+01
1.3960316118477815e+01
1.3765289166954039e+01
1.3570227887384318e+01
1.3375130073044771e+01
1.3179990658657122e+01
1.2984803326767079e+01
1.2789568049388377e+01
1.2594286591337584e+01
1.2398959699710467e+01
1.2203588213054401e+01
1.2008171164151026e+01
1.1812712347918007e+01
1.1617216188555087e+01
1.1421680179819612e+01
1.1226102725368186e+01
1.1030482784310708e+01
1.0834819647527819e+01
1.0639112808188496e+01
1.0443361881671105e+01
1.0247566561109474e+01
1.0051726579750431e+01
9.8558416972749257e+00
9.6599116943809502e+00
9.4639363566234369e+00
9.2679154799235057e+00
9.0718488662371168e+00
8.8757363162059626e+00
8.6795776305019352e+00
8.4833726140559733e+00
8.2871210721793709e+00
8.0908228073783786e+00
7.8944776252072293e+00
7.6980853331116288e+00
7.5016457357655417e+00
7.3051586379715499e+00
7.1086238475133090e+00
6.9120411715546028e+00
6.7154104171016771e+00
6.5187313918326613e+00
6.3220039029392128e+00
6.1252277581030379e+00
5.9284027660000334e+00
5.7315287353665259e+00
5.5346054747682478e+00
5.3376327930250662e+00
5.1406104999369688e+00
4.9435384056227809e+00
4.7464163209690238e+00
4.5492440571050556e+00
4.3520214254240353e+00
4.1547482377361193e+00
3.9574243051004805e+00
3.7600494389118100e+00
3.5626234517499844e+00
3.3651461572941064e+00
3.1676173709110831e+00
2.9700369058946050e+00
2.7724045745826431e+00
2.5747201889666367e+00
2.3769835680721343e+00
2.1791945308742147e+00
1.9813528958663102e+00
1.7834584743109236e+00
1.5855110733926581e+00
1.3875105247598083e+00
1.1894566211033062e+00
9.9134925343077707e-01
7.9318806270827402e-01
5.9497333968652744e-01
3.9670366954699904e-01
1.9838212108736056e-01
0.0000000000000000e+00


SCALARS diameter float
LOOKUP_TABLE default
1.0017699924758614e+00
1.0017501717525132e+00
1.0017314190713822e+00
1.0017145082138916e+00
1.0016986142762510e+00
1.0016827051498869e+00
1.0016660650133342e+00
1.0016483374993119e+00
1.0016304377446406e+00
1.0016134451517880e+00
1.0015967134637875e+00
1.0015799643725545e+00
1.0015631090876487e+00
1.0015454119007883e+00
1.0015267698108214e+00
1.0015079037479837e+00
1.0014892805932372e+00
1.0014725086446776e+00
1.0014557482768627e+00
1.0014385375578114e+00
1.0014211889901385e+00
1.0014038539454870e+00
1.0013861132135395e+00
1.0013679725009730e+00
1.0013496217123341e+00
1.0013316540208459e+00
1.0013140466214918e+00
1.0012963971177178e+00
1.0012787396921670e+00
1.0012611044482622e+00
1.0012438295411459e+00
1.0012265351126268e+00
1.0012091878708662e+00
1.0011914161770397e+00
1.0011734751251438e+00
1.0011555249099462e+00
1.0011375642735396e+00
1.0011195927028580e+00
1.0011016103686541e+00
1.0010836453375165e+00
1.0010661168163046e+00
1.0010485754634686e+00
1.0010310217612686e+00
1.0010134565485720e+00
1.0009958801312802e+00
1.0009782927730051e+00
1.0009606947668017e+00
1.0009430863959079e+00
1.0009254680014652e+00
1.0009078392987902e+00
1.0008902009830476e+00
1.0008725529135583e+00
1.0008548953474694e+00
1.0008372287658909e+00
1.0008195532088007e+00
1.0008018687490670e+00
1.0007841756404041e+00
1.0007664742494558e+00
1.0007487645165341e+00
1.0007310466824144e+00
1.0007133210927426e+00
1.0006955878448269e+00
1.0006778469908957e+00
1.0006600988732388e+00
1.0006423437025695e+00
1.0006245816019996e+00
1.0006068128132140e+00
1.0005890374814219e+00
1.0005712557815098e+00
1.0005534679332757e+00
1.0005356741361215e+00
1.0005178745395180e+00
1.0005000693235777e+00
1.0004822586798707e+00
1.0004644428331715e+00
1.0004466219460362e+00
1.0004287962701690e+00
1.0004109659285580e+00
1.0003931311715455e+00
1.0003752920964597e+00
1.0003574488543066e+00
1.0003396016552122e+00
1.0003217507137512e+00
1.0003038962839939e+00
1.0002860385270820e+00
1.0002681774273554e+00
1.0002503132019196e+00
1.0002324460522556e+00
1.0002145766656545e+00
1.0001967047806462e+00
1.0001788308011439e+00
1.0001609538468406e+00
1.0001430752713398e+00
1.0001251947311307e+00
1.0001073128389959e+00
1.0000894296157317e+00
1.0000715452381470e+00
1.0000536598782865e+00
1.0000357738498151e+00
1.0000178873592056e+00
9.9999999986677923e-01


SCALARS iters float
LOOKUP_TABLE default
3.0000000000000000e+00
3.0000000000000000e+00
3.0000000000000000e+00
3.0000000000000000e+00
3.0000000000000000e+00
3.0000000000000000e+00
3.0000000000000000e+00
3.0000000000000000e+00
3.0000000000000000e+00
3.0000000000000000e+00
3.0000000000000000e+00
3.0000000000000000e+00
3.0000000000000000e+00
3.0000000000000000e+00
3.0000000000000000e+00
3.0000000000000000e+00
3.0000000000000000e+00
3.0000000000000000e+00
3.0000000000000000e+00
3.0000000000000000e+00
3.0000000000000000e+00
3.0000000000000000e+00
3.0000000000000000e+00
3.0000000000000000e+00
3.0000000000000000e+00
3.0000000000000000e+00
3.0000000000000000e+00
3.0000000000000000e+00
3.0000000000000000e+00
3.0000000000000000e+00
3.0000000000000000e+00
3.0000000000000000e+00
3.0000000000000000e+00
3.0000000000000000e+00
3.0000000000000000e+00
3.0000000000000000e+00
3.0000000000000000e+00
3.0000000000000000e+00
3.0000000000000000e+00
3.0000000000000000e+00
3.0000000000000000e+00
3.0000000000000000e+00
3.0000000000000000e+00
3.0000000000000000e+00
3.0000000000000000e+00
3.0000000000000000e+00
3.0000000000000000e+00
3.0000000000000000e+00
3.0000000000000000e+00
3.0000000000000000e+00
3.0000000000000000e+00
3.0000000000000000e+00
3.0000000000000000e+00
3.0000000000000000e+00
3.0000000000000000e+00
3.0000000000000000e+00
3.0000000000000000e+00
3.0000000000000000e+00
3.0000000000000000e+00
3.0000000000000000e+00
3.0000000000000000e+00
3.0000000000000000e+00
3.0000000000000000e+00
3.0000000000000000e+00
3.0000000000000000e+00
3.0000000000000000e+00
3.0000000000000000e+00
3.0000000000000000e+00
3.0000000000000000e+00
3.0000000000000000e+00
3.0000000000000000e+00
3.0000000000000000e+00
3.0000000000000000e+00
3.0000000000000000e+00
3.0000000000000000e+00
3.0000000000000000e+00
3.0000000000000000e+00
3.0000000000000000e+00
3.0000000000000000e+00
3.0000000000000000e+00
3.0000000000000000e+00
3.0000000000000000e+00
3.0000000000000000e+00
3.0000000000000000e+00
3.0000000000000000e+00
3.0000000000000000e+00
3.0000000000000000e+00
3.0000000000000000e+00
3.0000000000000000e+00
3.0000000000000000e+00
3.0000000000000000e+00
3.0000000000000000e+00
3.0000000000000000e+00
3.0000000000000000e+00
3.0000000000000000e+00
3.0000000000000000e+00
3.0000000000000000e+00
3.0000000000000000e+00
3.0000000000000000e+00
3.0000000000000000e+00
3.0000000000000000e+00


