# vtk DataFile Version 2.0

ASCII

DATASET UNSTRUCTURED_GRID

POINTS 101 float

0.0000000000000000e+00 0.0000000000000000e+00 0.0000000000000000e+00
1.0000000000000001e-01 0.0000000000000000e+00 0.0000000000000000e+00
2.0000000000000001e-01 0.0000000000000000e+00 0.0000000000000000e+00
3.0000000000000004e-01 0.0000000000000000e+00 0.0000000000000000e+00
4.0000000000000002e-01 0.0000000000000000e+00 0.0000000000000000e+00
5.0000000000000000e-01 0.0000000000000000e+00 0.0000000000000000e+00
6.0000000000000009e-01 0.0000000000000000e+00 0.0000000000000000e+00
7.0000000000000007e-01 0.0000000000000000e+00 0.0000000000000000e+00
8.0000000000000004e-01 0.0000000000000000e+00 0.0000000000000000e+00
9.0000000000000002e-01 0.0000000000000000e+00 0.0000000000000000e+00
1.0000000000000000e+00 0.0000000000000000e+00 0.0000000000000000e+00
1.1000000000000001e+00 0.0000000000000000e+00 0.0000000000000000e+00
1.2000000000000002e+00 0.0000000000000000e+00 0.0000000000000000e+00
1.3000000000000000e+00 0.0000000000000000e+00 0.0000000000000000e+00
1.4000000000000001e+00 0.0000000000000000e+00 0.0000000000000000e+00
1.5000000000000000e+00 0.0000000000000000e+00 0.0000000000000000e+00
1.6000000000000001e+00 0.0000000000000000e+00 0.0000000000000000e+00
1.7000000000000002e+00 0.0000000000000000e+00 0.0000000000000000e+00
1.8000000000000000e+00 0.0000000000000000e+00 0.0000000000000000e+00
1.9000000000000001e+00 0.0000000000000000e+00 0.0000000000000000e+00
2.0000000000000000e+00 0.0000000000000000e+00 0.0000000000000000e+00
2.1000000000000001e+00 0.0000000000000000e+00 0.0000000000000000e+00
2.2000000000000002e+00 0.0000000000000000e+00 0.0000000000000000e+00
2.3000000000000003e+00 0.0000000000000000e+00 0.0000000000000000e+00
2.4000000000000004e+00 0.0000000000000000e+00 0.0000000000000000e+00
2.5000000000000000e+00 0.0000000000000000e+00 0.0000000000000000e+00
2.6000000000000001e+00 0.0000000000000000e+00 0.0000000000000000e+00
2.7000000000000002e+00 0.0000000000000000e+00 0.0000000000000000e+00
2.8000000000000003e+00 0.0000000000000000e+00 0.0000000000000000e+00
2.9000000000000004e+00 0.0000000000000000e+00 0.0000000000000000e+00
3.0000000000000000e+00 0.0000000000000000e+00 0.0000000000000000e+00
3.1000000000000001e+00 0.0000000000000000e+00 0.0000000000000000e+00
3.2000000000000002e+00 0.0000000000000000e+00 0.0000000000000000e+00
3.3000000000000003e+00 0.0000000000000000e+00 0.0000000000000000e+00
3.4000000000000004e+00 0.0000000000000000e+00 0.0000000000000000e+00
3.5000000000000000e+00 0.0000000000000000e+00 0.0000000000000000e+00
3.6000000000000001e+00 0.0000000000000000e+00 0.0000000000000000e+00
3.7000000000000002e+00 0.0000000000000000e+00 0.0000000000000000e+00
3.8000000000000003e+00 0.0000000000000000e+00 0.0000000000000000e+00
3.9000000000000004e+00 0.0000000000000000e+00 0.0000000000000000e+00
4.0000000000000000e+00 0.0000000000000000e+00 0.0000000000000000e+00
4.1000000000000005e+00 0.0000000000000000e+00 0.0000000000000000e+00
4.2000000000000002e+00 0.0000000000000000e+00 0.0000000000000000e+00
4.2999999999999998e+00 0.0000000000000000e+00 0.0000000000000000e+00
4.4000000000000004e+00 0.0000000000000000e+00 0.0000000000000000e+00
4.5000000000000000e+00 0.0000000000000000e+00 0.0000000000000000e+00
4.6000000000000005e+00 0.0000000000000000e+00 0.0000000000000000e+00
4.7000000000000002e+00 0.0000000000000000e+00 0.0000000000000000e+00
4.8000000000000007e+00 0.0000000000000000e+00 0.0000000000000000e+00
4.9000000000000004e+00 0.0000000000000000e+00 0.0000000000000000e+00
5.0000000000000000e+00 0.0000000000000000e+00 0.0000000000000000e+00
5.1000000000000005e+00 0.0000000000000000e+00 0.0000000000000000e+00
5.2000000000000002e+00 0.0000000000000000e+00 0.0000000000000000e+00
5.3000000000000007e+00 0.0000000000000000e+00 0.0000000000000000e+00
5.4000000000000004e+00 0.0000000000000000e+00 0.0000000000000000e+00
5.5000000000000000e+00 0.0000000000000000e+00 0.0000000000000000e+00
5.6000000000000005e+00 0.0000000000000000e+00 0.0000000000000000e+00
5.7000000000000002e+00 0.0000000000000000e+00 0.0000000000000000e+00
5.8000000000000007e+00 0.0000000000000000e+00 0.0000000000000000e+00
5.9000000000000004e+00 0.0000000000000000e+00 0.0000000000000000e+00
6.0000000000000000e+00 0.0000000000000000e+00 0.0000000000000000e+00
6.1000000000000005e+00 0.0000000000000000e+00 0.0000000000000000e+00
6.2000000000000002e+00 0.0000000000000000e+00 0.0000000000000000e+00
6.3000000000000007e+00 0.0000000000000000e+00 0.0000000000000000e+00
6.4000000000000004e+00 0.0000000000000000e+00 0.0000000000000000e+00
6.5000000000000000e+00 0.0000000000000000e+00 0.0000000000000000e+00
6.6000000000000005e+00 0.0000000000000000e+00 0.0000000000000000e+00
6.7000000000000002e+00 0.0000000000000000e+00 0.0000000000000000e+00
6.8000000000000007e+00 0.0000000000000000e+00 0.0000000000000000e+00
6.9000000000000004e+00 0.0000000000000000e+00 0.0000000000000000e+00
7.0000000000000000e+00 0.0000000000000000e+00 0.0000000000000000e+00
7.1000000000000005e+00 0.0000000000000000e+00 0.0000000000000000e+00
7.2000000000000002e+00 0.0000000000000000e+00 0.0000000000000000e+00
7.3000000000000007e+00 0.0000000000000000e+00 0.0000000000000000e+00
7.4000000000000004e+00 0.0000000000000000e+00 0.0000000000000000e+00
7.5000000000000000e+00 0.0000000000000000e+00 0.0000000000000000e+00
7.6000000000000005e+00 0.0000000000000000e+00 0.0000000000000000e+00
7.7000000000000002e+00 0.0000000000000000e+00 0.0000000000000000e+00
7.8000000000000007e+00 0.0000000000000000e+00 0.0000000000000000e+00
7.9000000000000004e+00 0.0000000000000000e+00 0.0000000000000000e+00
8.0000000000000000e+00 0.0000000000000000e+00 0.0000000000000000e+00
8.0999999999999996e+00 0.0000000000000000e+00 0.0000000000000000e+00
8.2000000000000011e+00 0.0000000000000000e+00 0.0000000000000000e+00
8.3000000000000007e+00 0.0000000000000000e+00 0.0000000000000000e+00
8.4000000000000004e+00 0.0000000000000000e+00 0.0000000000000000e+00
8.5000000000000000e+00 0.0000000000000000e+00 0.0000000000000000e+00
8.5999999999999996e+00 0.0000000000000000e+00 0.0000000000000000e+00
8.7000000000000011e+00 0.0000000000000000e+00 0.0000000000000000e+00
8.8000000000000007e+00 0.0000000000000000e+00 0.0000000000000000e+00
8.9000000000000004e+00 0.0000000000000000e+00 0.0000000000000000e+00
9.0000000000000000e+00 0.0000000000000000e+00 0.0000000000000000e+00
9.0999999999999996e+00 0.0000000000000000e+00 0.0000000000000000e+00
9.2000000000000011e+00 0.0000000000000000e+00 0.0000000000000000e+00
9.3000000000000007e+00 0.0000000000000000e+00 0.0000000000000000e+00
9.4000000000000004e+00 0.0000000000000000e+00 0.0000000000000000e+00
9.5000000000000000e+00 0.0000000000000000e+00 0.0000000000000000e+00
9.6000000000000014e+00 0.0000000000000000e+00 0.0000000000000000e+00
9.7000000000000011e+00 0.0000000000000000e+00 0.0000000000000000e+00
9.8000000000000007e+00 0.0000000000000000e+00 0.0000000000000000e+00
9.9000000000000004e+00 0.0000000000000000e+00 0.0000000000000000e+00
1.0000000000000000e+01 0.0000000000000000e+00 0.0000000000000000e+00

POINT_DATA 101

VECTORS velocity float
6.8152710872562352e+00 0.0000000000000000e+00 0.0000000000000000e+00
6.8152434904954013e+00 0.0000000000000000e+00 0.0000000000000000e+00
6.8152135341854274e+00 0.0000000000000000e+00 0.0000000000000000e+00
6.8151792168741974e+00 0.0000000000000000e+00 0.0000000000000000e+00
6.8151417504208780e+00 0.0000000000000000e+00 0.0000000000000000e+00
6.8151044807576593e+00 0.0000000000000000e+00 0.0000000000000000e+00
6.8150714796765621e+00 0.0000000000000000e+00 0.0000000000000000e+00
6.8150429389910219e+00 0.0000000000000000e+00 0.0000000000000000e+00
6.8150144276390883e+00 0.0000000000000000e+00 0.0000000000000000e+00
6.8149835450709393e+00 0.0000000000000000e+00 0.0000000000000000e+00
6.8149518452723488e+00 0.0000000000000000e+00 0.0000000000000000e+00
6.8149201427457262e+00 0.0000000000000000e+00 0.0000000000000000e+00
6.8148898811967866e+00 0.0000000000000000e+00 0.0000000000000000e+00
6.8148640749857865e+00 0.0000000000000000e+00 0.0000000000000000e+00
6.8148425954361755e+00 0.0000000000000000e+00 0.0000000000000000e+00
6.8148243284049403e+00 0.0000000000000000e+00 0.0000000000000000e+00
6.8148047414134147e+00 0.0000000000000000e+00 0.0000000000000000e+00
6.8147812376648993e+00 0.0000000000000000e+00 0.0000000000000000e+00
6.8147578384597276e+00 0.0000000000000000e+00 0.0000000000000000e+00
6.8147360517250952e+00 0.0000000000000000e+00 0.0000000000000000e+00
6.8147152030920939e+00 0.0000000000000000e+00 0.0000000000000000e+00
6.8146954221202538e+00 0.0000000000000000e+00 0.0000000000000000e+00
6.8146775325764413e+00 0.0000000000000000e+00 0.0000000000000000e+00
6.8146620462412519e+00 0.0000000000000000e+00 0.0000000000000000e+00
6.8146498540415665e+00 0.0000000000000000e+00 0.0000000000000000e+00
6.8146386079870815e+00 0.0000000000000000e+00 0.0000000000000000e+00
6.8146269061722773e+00 0.0000000000000000e+00 0.0000000000000000e+00
6.8146158389968914e+00 0.0000000000000000e+00 0.0000000000000000e+00
6.8146057588040021e+00 0.0000000000000000e+00 0.0000000000000000e+00
6.8145958691623481e+00 0.0000000000000000e+00 0.0000000000000000e+00
6.8145857591170023e+00 0.0000000000000000e+00 0.0000000000000000e+00
6.8145760940029714e+00 0.0000000000000000e+00 0.0000000000000000e+00
6.8145676897872089e+00 0.0000000000000000e+00 0.0000000000000000e+00
6.8145614159588366e+00 0.0000000000000000e+00 0.0000000000000000e+00
6.8145568555660443e+00 0.0000000000000000e+00 0.0000000000000000e+00
6.8145536309618739e+00 0.0000000000000000e+00 0.0000000000000000e+00
6.8145516469712293e+00 0.0000000000000000e+00 0.0000000000000000e+00
6.8145507841275927e+00 0.0000000000000000e+00 0.0000000000000000e+00
6.8145511252423265e+00 0.0000000000000000e+00 0.0000000000000000e+00
6.8145522297935299e+00 0.0000000000000000e+00 0.0000000000000000e+00
6.8145538391149287e+00 0.0000000000000000e+00 0.0000000000000000e+00
6.8145563368582485e+00 0.0000000000000000e+00 0.0000000000000000e+00
6.8145597998819598e+00 0.0000000000000000e+00 0.0000000000000000e+00
6.8145642763492909e+00 0.0000000000000000e+00 0.0000000000000000e+00
6.8145697970398578e+00 0.0000000000000000e+00 0.0000000000000000e+00
6.8145763814842937e+00 0.0000000000000000e+00 0.0000000000000000e+00
6.8145840423120498e+00 0.0000000000000000e+00 0.0000000000000000e+00
6.8145927871395573e+00 0.0000000000000000e+00 0.0000000000000000e+00
6.8146026220286560e+00 0.0000000000000000e+00 0.0000000000000000e+00
6.8146135511681036e+00 0.0000000000000000e+00 0.0000000000000000e+00
6.8146255768824471e+00 0.0000000000000000e+00 0.0000000000000000e+00
6.8146387019613623e+00 0.0000000000000000e+00 0.0000000000000000e+00
6.8146529277783046e+00 0.0000000000000000e+00 0.0000000000000000e+00
6.8146682553512594e+00 0.0000000000000000e+00 0.0000000000000000e+00
6.8146846862830994e+00 0.0000000000000000e+00 0.0000000000000000e+00
6.8147022219683420e+00 0.0000000000000000e+00 0.0000000000000000e+00
6.8147208629167082e+00 0.0000000000000000e+00 0.0000000000000000e+00
6.8147406101095518e+00 0.0000000000000000e+00 0.0000000000000000e+00
6.8147614651573409e+00 0.0000000000000000e+00 0.0000000000000000e+00
6.8147834287606672e+00 0.0000000000000000e+00 0.0000000000000000e+00
6.8148065015009971e+00 0.0000000000000000e+00 0.0000000000000000e+00
6.8148306846372195e+00 0.0000000000000000e+00 0.0000000000000000e+00
6.8148559791726262e+00 0.0000000000000000e+00 0.0000000000000000e+00
6.8148823855201668e+00 0.0000000000000000e+00 0.0000000000000000e+00
6.8149099044499417e+00 0.0000000000000000e+00 0.0000000000000000e+00
6.8149385367429982e+00 0.0000000000000000e+00 0.0000000000000000e+00
6.8149682830438518e+00 0.0000000000000000e+00 0.0000000000000000e+00
6.8149991441721429e+00 0.0000000000000000e+00 0.0000000000000000e+00
6.8150311208456058e+00 0.0000000000000000e+00 0.0000000000000000e+00
6.8150642136398201e+00 0.0000000000000000e+00 0.0000000000000000e+00
6.8150984231621301e+00 0.0000000000000000e+00 0.0000000000000000e+00
6.8151337500733602e+00 0.0000000000000000e+00 0.0000000000000000e+00
6.8151701949619055e+00 0.0000000000000000e+00 0.0000000000000000e+00
6.8152077583294837e+00 0.0000000000000000e+00 0.0000000000000000e+00
6.8152464407220918e+00 0.0000000000000000e+00 0.0000000000000000e+00
6.8152862424784315e+00 0.0000000000000000e+00 0.0000000000000000e+00
6.8153271641703244e+00 0.0000000000000000e+00 0.0000000000000000e+00
6.8153692060733180e+00 0.0000000000000000e+00 0.0000000000000000e+00
6.8154123687314456e+00 0.0000000000000000e+00 0.0000000000000000e+00
6.8154566528227134e+00 0.0000000000000000e+00 0.0000000000000000e+00
6.8155020586032435e+00 0.0000000000000000e+00 0.0000000000000000e+00
6.8155485864250069e+00 0.0000000000000000e+00 0.0000000000000000e+00
6.8155962364840343e+00 0.0000000000000000e+00 0.0000000000000000e+00
6.8156450091349896e+00 0.0000000000000000e+00 0.0000000000000000e+00
6.8156949046044213e+00 0.0000000000000000e+00 0.0000000000000000e+00
6.8157459232127433e+00 0.0000000000000000e+00 0.0000000000000000e+00
6.8157980655618173e+00 0.0000000000000000e+00 0.0000000000000000e+00
6.8158513307731932e+00 0.0000000000000000e+00 0.0000000000000000e+00
6.8159057189840606e+00 0.0000000000000000e+00 0.0000000000000000e+00
6.8159612302386305e+00 0.0000000000000000e+00 0.0000000000000000e+00
6.8160178665205837e+00 0.0000000000000000e+00 0.0000000000000000e+00
6.8160756281968178e+00 0.0000000000000000e+00 0.0000000000000000e+00
6.8161345133069471e+00 0.0000000000000000e+00 0.0000000000000000e+00
6.8161945244400277e+00 0.0000000000000000e+00 0.0000000000000000e+00
6.8162556559936869e+00 0.0000000000000000e+00 0.0000000000000000e+00
6.8163179203199666e+00 0.0000000000000000e+00 0.0000000000000000e+00
6.8163812851122358e+00 0.0000000000000000e+00 0.0000000000000000e+00
6.8164458352662356e+00 0.0000000000000000e+00 0.0000000000000000e+00
6.8165113462105991e+00 0.0000000000000000e+00 0.0000000000000000e+00
6.8165784078502600e+00 0.0000000000000000e+00 0.0000000000000000e+00
6.8166454694899210e+00 0.0000000000000000e+00 0.0000000000000000e+00


SCALARS pressure float
LOOKUP_TABLE default
1.1433326325939943e+01
1.1319651875937273e+01
1.1205977425934602e+01
1.1092306342338924e+01
1.0978650193006089e+01
1.0865007669452412e+01
1.0751363150384666e+01
1.0637692986783694e+01
1.0523988556826769e+01
1.0410267451681870e+01
1.0296546428184913e+01
1.0182823612089674e+01
1.0069094524518663e+01
9.9553509860659783e+00
9.8415765219049369e+00
9.7277665549252550e+00
9.6139247826564205e+00
9.5000733969908016e+00
9.3862315821840738e+00
9.2723870513636530e+00
9.1585290271896014e+00
9.0446572148307744e+00
8.9307708465196782e+00
8.8168657103601049e+00
8.7029378898773011e+00
8.5889822655399524e+00
8.4750082456604208e+00
8.3610251621259231e+00
8.2470309452621713e+00
8.1330232812706367e+00
8.0190051224428469e+00
7.9049793295436963e+00
7.7909437605141845e+00
7.6768939807173204e+00
7.5628246102313108e+00
7.4487358929403706e+00
7.3346296875662365e+00
7.2205070646610849e+00
7.1063689488212756e+00
6.9922152928629924e+00
6.8780481157269007e+00
6.7638691719086124e+00
6.6496772201822916e+00
6.5354714785875485e+00
6.4212514482688059e+00
6.3070168032080511e+00
6.1927673257659448e+00
6.0785028655786117e+00
5.9642233175397159e+00
5.8499285986300507e+00
5.7356186419819419e+00
5.6212933949217314e+00
5.5069528075739287e+00
5.3925968379256961e+00
5.2782254485658235e+00
5.1638386012696254e+00
5.0494362588978046e+00
4.9350183891754211e+00
4.8205849596309873e+00
4.7061359352209360e+00
4.5916712846839269e+00
4.4771909789329296e+00
4.3626949868480613e+00
4.2481832782249800e+00
4.1336558262622365e+00
4.0191126039761684e+00
3.9045535846487374e+00
3.7899787426436475e+00
3.6753880522261380e+00
3.5607814884592570e+00
3.4461590276744558e+00
3.3315206468085794e+00
3.2168663230896697e+00
3.1021960345091690e+00
2.9875097600388036e+00
2.8728074790942468e+00
2.7580891725061760e+00
2.6433548208074460e+00
2.5286044061074224e+00
2.4138379101025351e+00
2.2990553140529317e+00
2.1842566012905857e+00
2.0694417556731817e+00
1.9546107622357174e+00
1.8397636059568294e+00
1.7249002726242626e+00
1.6100207481429802e+00
1.4951250174096011e+00
1.3802130720404509e+00
1.2652849014100713e+00
1.1503404949009595e+00
1.0353798331943276e+00
9.2040290186302109e-01
8.0540969900624138e-01
6.9040020584732853e-01
5.7537443669466626e-01
4.6033233280904023e-01
3.4527402060509393e-01
2.3019914025397659e-01
1.1510861464434206e-01
0.0000000000000000e+00


SCALARS diameter float
LOOKUP_TABLE default
1.0010338743172393e+00
1.0010222959019774e+00
1.0010110056894430e+00
1.0010009383213871e+00
1.0009915858241429e+00
1.0009822367032837e+00
1.0009719155076788e+00
1.0009606096362982e+00
1.0009495868319538e+00
1.0009396978411678e+00
1.0009301606931100e+00
1.0009206281787004e+00
1.0009110092234057e+00
1.0009005849397925e+00
1.0008892809343528e+00
1.0008778383649219e+00
1.0008666919327962e+00
1.0008572380033416e+00
1.0008477448855857e+00
1.0008378045381987e+00
1.0008277572061548e+00
1.0008177836522469e+00
1.0008075554738460e+00
1.0007970777255590e+00
1.0007861722530140e+00
1.0007751657823178e+00
1.0007648464560965e+00
1.0007545045718600e+00
1.0007441616326143e+00
1.0007338515921163e+00
1.0007239389545988e+00
1.0007140166047439e+00
1.0007040650378496e+00
1.0006937597000398e+00
1.0006833139025844e+00
1.0006728660332225e+00
1.0006624153275541e+00
1.0006519615348466e+00
1.0006415046912813e+00
1.0006310570619592e+00
1.0006207970419365e+00
1.0006105310868048e+00
1.0006002600350064e+00
1.0005899844774875e+00
1.0005797046152365e+00
1.0005694206119999e+00
1.0005591326252721e+00
1.0005488408378529e+00
1.0005385454370197e+00
1.0005282461291578e+00
1.0005179433976681e+00
1.0005076370610817e+00
1.0004973272580966e+00
1.0004870142733047e+00
1.0004766980626663e+00
1.0004663786214045e+00
1.0004560561408078e+00
1.0004457308289767e+00
1.0004354024908104e+00
1.0004250712709226e+00
1.0004147373842598e+00
1.0004044008171089e+00
1.0003940615371130e+00
1.0003837197717238e+00
1.0003733756200319e+00
1.0003630290971728e+00
1.0003526803321072e+00
1.0003423293605904e+00
1.0003319762437073e+00
1.0003216210826469e+00
1.0003112639667417e+00
1.0003009049487874e+00
1.0002905441005208e+00
1.0002801815094173e+00
1.0002698172558142e+00
1.0002594514191456e+00
1.0002490841102627e+00
1.0002387153381662e+00
1.0002283452871041e+00
1.0002179738187207e+00
1.0002076011424708e+00
1.0001972272761979e+00
1.0001868523590500e+00
1.0001764764314554e+00
1.0001660995636206e+00
1.0001557218344359e+00
1.0001453432236400e+00
1.0001349639240247e+00
1.0001245843136615e+00
1.0001142040573281e+00
1.0001038233466424e+00
1.0000934414216680e+00
1.0000830596171528e+00
1.0000726771703623e+00
1.0000622947051165e+00
1.0000519121059892e+00
1.0000415294606797e+00
1.0000311468271581e+00
1.0000207643500556e+00
1.0000103821352089e+00
9.9999999998498545e-01


SCALARS iters float
LOOKUP_TABLE default
3.0000000000000000e+00
3.0000000000000000e+00
3.0000000000000000e+00
3.0000000000000000e+00
3.0000000000000000e+00
3.0000000000000000e+00
3.0000000000000000e+00
3.0000000000000000e+00
3.0000000000000000e+00
3.0000000000000000e+00
3.0000000000000000e+00
3.0000000000000000e+00
3.0000000000000000e+00
3.0000000000000000e+00
3.0000000000000000e+00
3.0000000000000000e+00
3.0000000000000000e+00
3.0000000000000000e+00
3.0000000000000000e+00
3.0000000000000000e+00
3.0000000000000000e+00
3.0000000000000000e+00
3.0000000000000000e+00
3.0000000000000000e+00
3.0000000000000000e+00
3.0000000000000000e+00
3.0000000000000000e+00
3.0000000000000000e+00
3.0000000000000000e+00
3.0000000000000000e+00
3.0000000000000000e+00
3.0000000000000000e+00
3.0000000000000000e+00
3.0000000000000000e+00
3.0000000000000000e+00
3.0000000000000000e+00
3.0000000000000000e+00
3.0000000000000000e+00
3.0000000000000000e+00
3.0000000000000000e+00
3.0000000000000000e+00
3.0000000000000000e+00
3.0000000000000000e+00
3.0000000000000000e+00
3.0000000000000000e+00
3.0000000000000000e+00
3.0000000000000000e+00
3.0000000000000000e+00
3.0000000000000000e+00
3.0000000000000000e+00
3.0000000000000000e+00
3.0000000000000000e+00
3.0000000000000000e+00
3.0000000000000000e+00
3.0000000000000000e+00
3.0000000000000000e+00
3.0000000000000000e+00
3.0000000000000000e+00
3.0000000000000000e+00
3.0000000000000000e+00
3.0000000000000000e+00
3.0000000000000000e+00
3.0000000000000000e+00
3.0000000000000000e+00
3.0000000000000000e+00
3.0000000000000000e+00
3.0000000000000000e+00
3.0000000000000000e+00
3.0000000000000000e+00
3.0000000000000000e+00
3.0000000000000000e+00
3.0000000000000000e+00
3.0000000000000000e+00
3.0000000000000000e+00
3.0000000000000000e+00
3.0000000000000000e+00
3.0000000000000000e+00
3.0000000000000000e+00
3.0000000000000000e+00
3.0000000000000000e+00
3.0000000000000000e+00
3.0000000000000000e+00
3.0000000000000000e+00
3.0000000000000000e+00
3.0000000000000000e+00
3.0000000000000000e+00
3.0000000000000000e+00
3.0000000000000000e+00
3.0000000000000000e+00
3.0000000000000000e+00
3.0000000000000000e+00
3.0000000000000000e+00
3.0000000000000000e+00
3.0000000000000000e+00
3.0000000000000000e+00
3.0000000000000000e+00
3.0000000000000000e+00
3.0000000000000000e+00
3.0000000000000000e+00
3.0000000000000000e+00
3.0000000000000000e+00


