# vtk DataFile Version 2.0

ASCII

DATASET UNSTRUCTURED_GRID

POINTS 101 float

0.0000000000000000e+00 0.0000000000000000e+00 0.0000000000000000e+00
1.0000000000000001e-01 0.0000000000000000e+00 0.0000000000000000e+00
2.0000000000000001e-01 0.0000000000000000e+00 0.0000000000000000e+00
3.0000000000000004e-01 0.0000000000000000e+00 0.0000000000000000e+00
4.0000000000000002e-01 0.0000000000000000e+00 0.0000000000000000e+00
5.0000000000000000e-01 0.0000000000000000e+00 0.0000000000000000e+00
6.0000000000000009e-01 0.0000000000000000e+00 0.0000000000000000e+00
7.0000000000000007e-01 0.0000000000000000e+00 0.0000000000000000e+00
8.0000000000000004e-01 0.0000000000000000e+00 0.0000000000000000e+00
9.0000000000000002e-01 0.0000000000000000e+00 0.0000000000000000e+00
1.0000000000000000e+00 0.0000000000000000e+00 0.0000000000000000e+00
1.1000000000000001e+00 0.0000000000000000e+00 0.0000000000000000e+00
1.2000000000000002e+00 0.0000000000000000e+00 0.0000000000000000e+00
1.3000000000000000e+00 0.0000000000000000e+00 0.0000000000000000e+00
1.4000000000000001e+00 0.0000000000000000e+00 0.0000000000000000e+00
1.5000000000000000e+00 0.0000000000000000e+00 0.0000000000000000e+00
1.6000000000000001e+00 0.0000000000000000e+00 0.0000000000000000e+00
1.7000000000000002e+00 0.0000000000000000e+00 0.0000000000000000e+00
1.8000000000000000e+00 0.0000000000000000e+00 0.0000000000000000e+00
1.9000000000000001e+00 0.0000000000000000e+00 0.0000000000000000e+00
2.0000000000000000e+00 0.0000000000000000e+00 0.0000000000000000e+00
2.1000000000000001e+00 0.0000000000000000e+00 0.0000000000000000e+00
2.2000000000000002e+00 0.0000000000000000e+00 0.0000000000000000e+00
2.3000000000000003e+00 0.0000000000000000e+00 0.0000000000000000e+00
2.4000000000000004e+00 0.0000000000000000e+00 0.0000000000000000e+00
2.5000000000000000e+00 0.0000000000000000e+00 0.0000000000000000e+00
2.6000000000000001e+00 0.0000000000000000e+00 0.0000000000000000e+00
2.7000000000000002e+00 0.0000000000000000e+00 0.0000000000000000e+00
2.8000000000000003e+00 0.0000000000000000e+00 0.0000000000000000e+00
2.9000000000000004e+00 0.0000000000000000e+00 0.0000000000000000e+00
3.0000000000000000e+00 0.0000000000000000e+00 0.0000000000000000e+00
3.1000000000000001e+00 0.0000000000000000e+00 0.0000000000000000e+00
3.2000000000000002e+00 0.0000000000000000e+00 0.0000000000000000e+00
3.3000000000000003e+00 0.0000000000000000e+00 0.0000000000000000e+00
3.4000000000000004e+00 0.0000000000000000e+00 0.0000000000000000e+00
3.5000000000000000e+00 0.0000000000000000e+00 0.0000000000000000e+00
3.6000000000000001e+00 0.0000000000000000e+00 0.0000000000000000e+00
3.7000000000000002e+00 0.0000000000000000e+00 0.0000000000000000e+00
3.8000000000000003e+00 0.0000000000000000e+00 0.0000000000000000e+00
3.9000000000000004e+00 0.0000000000000000e+00 0.0000000000000000e+00
4.0000000000000000e+00 0.0000000000000000e+00 0.0000000000000000e+00
4.1000000000000005e+00 0.0000000000000000e+00 0.0000000000000000e+00
4.2000000000000002e+00 0.0000000000000000e+00 0.0000000000000000e+00
4.2999999999999998e+00 0.0000000000000000e+00 0.0000000000000000e+00
4.4000000000000004e+00 0.0000000000000000e+00 0.0000000000000000e+00
4.5000000000000000e+00 0.0000000000000000e+00 0.0000000000000000e+00
4.6000000000000005e+00 0.0000000000000000e+00 0.0000000000000000e+00
4.7000000000000002e+00 0.0000000000000000e+00 0.0000000000000000e+00
4.8000000000000007e+00 0.0000000000000000e+00 0.0000000000000000e+00
4.9000000000000004e+00 0.0000000000000000e+00 0.0000000000000000e+00
5.0000000000000000e+00 0.0000000000000000e+00 0.0000000000000000e+00
5.1000000000000005e+00 0.0000000000000000e+00 0.0000000000000000e+00
5.2000000000000002e+00 0.0000000000000000e+00 0.0000000000000000e+00
5.3000000000000007e+00 0.0000000000000000e+00 0.0000000000000000e+00
5.4000000000000004e+00 0.0000000000000000e+00 0.0000000000000000e+00
5.5000000000000000e+00 0.0000000000000000e+00 0.0000000000000000e+00
5.6000000000000005e+00 0.0000000000000000e+00 0.0000000000000000e+00
5.7000000000000002e+00 0.0000000000000000e+00 0.0000000000000000e+00
5.8000000000000007e+00 0.0000000000000000e+00 0.0000000000000000e+00
5.9000000000000004e+00 0.0000000000000000e+00 0.0000000000000000e+00
6.0000000000000000e+00 0.0000000000000000e+00 0.0000000000000000e+00
6.1000000000000005e+00 0.0000000000000000e+00 0.0000000000000000e+00
6.2000000000000002e+00 0.0000000000000000e+00 0.0000000000000000e+00
6.3000000000000007e+00 0.0000000000000000e+00 0.0000000000000000e+00
6.4000000000000004e+00 0.0000000000000000e+00 0.0000000000000000e+00
6.5000000000000000e+00 0.0000000000000000e+00 0.0000000000000000e+00
6.6000000000000005e+00 0.0000000000000000e+00 0.0000000000000000e+00
6.7000000000000002e+00 0.0000000000000000e+00 0.0000000000000000e+00
6.8000000000000007e+00 0.0000000000000000e+00 0.0000000000000000e+00
6.9000000000000004e+00 0.0000000000000000e+00 0.0000000000000000e+00
7.0000000000000000e+00 0.0000000000000000e+00 0.0000000000000000e+00
7.1000000000000005e+00 0.0000000000000000e+00 0.0000000000000000e+00
7.2000000000000002e+00 0.0000000000000000e+00 0.0000000000000000e+00
7.3000000000000007e+00 0.0000000000000000e+00 0.0000000000000000e+00
7.4000000000000004e+00 0.0000000000000000e+00 0.0000000000000000e+00
7.5000000000000000e+00 0.0000000000000000e+00 0.0000000000000000e+00
7.6000000000000005e+00 0.0000000000000000e+00 0.0000000000000000e+00
7.7000000000000002e+00 0.0000000000000000e+00 0.0000000000000000e+00
7.8000000000000007e+00 0.0000000000000000e+00 0.0000000000000000e+00
7.9000000000000004e+00 0.0000000000000000e+00 0.0000000000000000e+00
8.0000000000000000e+00 0.0000000000000000e+00 0.0000000000000000e+00
8.0999999999999996e+00 0.0000000000000000e+00 0.0000000000000000e+00
8.2000000000000011e+00 0.0000000000000000e+00 0.0000000000000000e+00
8.3000000000000007e+00 0.0000000000000000e+00 0.0000000000000000e+00
8.4000000000000004e+00 0.0000000000000000e+00 0.0000000000000000e+00
8.5000000000000000e+00 0.0000000000000000e+00 0.0000000000000000e+00
8.5999999999999996e+00 0.0000000000000000e+00 0.0000000000000000e+00
8.7000000000000011e+00 0.0000000000000000e+00 0.0000000000000000e+00
8.8000000000000007e+00 0.0000000000000000e+00 0.0000000000000000e+00
8.9000000000000004e+00 0.0000000000000000e+00 0.0000000000000000e+00
9.0000000000000000e+00 0.0000000000000000e+00 0.0000000000000000e+00
9.0999999999999996e+00 0.0000000000000000e+00 0.0000000000000000e+00
9.2000000000000011e+00 0.0000000000000000e+00 0.0000000000000000e+00
9.3000000000000007e+00 0.0000000000000000e+00 0.0000000000000000e+00
9.4000000000000004e+00 0.0000000000000000e+00 0.0000000000000000e+00
9.5000000000000000e+00 0.0000000000000000e+00 0.0000000000000000e+00
9.6000000000000014e+00 0.0000000000000000e+00 0.0000000000000000e+00
9.7000000000000011e+00 0.0000000000000000e+00 0.0000000000000000e+00
9.8000000000000007e+00 0.0000000000000000e+00 0.0000000000000000e+00
9.9000000000000004e+00 0.0000000000000000e+00 0.0000000000000000e+00
1.0000000000000000e+01 0.0000000000000000e+00 0.0000000000000000e+00

POINT_DATA 101

VECTORS velocity float
4.9943087596154463e+00 0.0000000000000000e+00 0.0000000000000000e+00
4.9940527090344524e+00 0.0000000000000000e+00 0.0000000000000000e+00
4.9938218381174888e+00 0.0000000000000000e+00 0.0000000000000000e+00
4.9936047727407651e+00 0.0000000000000000e+00 0.0000000000000000e+00
4.9933981993922290e+00 0.0000000000000000e+00 0.0000000000000000e+00
4.9931979874401788e+00 0.0000000000000000e+00 0.0000000000000000e+00
4.9930066523342260e+00 0.0000000000000000e+00 0.0000000000000000e+00
4.9928181564862095e+00 0.0000000000000000e+00 0.0000000000000000e+00
4.9926228795271417e+00 0.0000000000000000e+00 0.0000000000000000e+00
4.9924243697415100e+00 0.0000000000000000e+00 0.0000000000000000e+00
4.9922253647450407e+00 0.0000000000000000e+00 0.0000000000000000e+00
4.9920266824662134e+00 0.0000000000000000e+00 0.0000000000000000e+00
4.9918318047246490e+00 0.0000000000000000e+00 0.0000000000000000e+00
4.9916429918297762e+00 0.0000000000000000e+00 0.0000000000000000e+00
4.9914572434062201e+00 0.0000000000000000e+00 0.0000000000000000e+00
4.9912761877627636e+00 0.0000000000000000e+00 0.0000000000000000e+00
4.9910929294464630e+00 0.0000000000000000e+00 0.0000000000000000e+00
4.9908994289944912e+00 0.0000000000000000e+00 0.0000000000000000e+00
4.9907057936794761e+00 0.0000000000000000e+00 0.0000000000000000e+00
4.9905177870900639e+00 0.0000000000000000e+00 0.0000000000000000e+00
4.9903340582138496e+00 0.0000000000000000e+00 0.0000000000000000e+00
4.9901559624078002e+00 0.0000000000000000e+00 0.0000000000000000e+00
4.9899816397070458e+00 0.0000000000000000e+00 0.0000000000000000e+00
4.9898059440011355e+00 0.0000000000000000e+00 0.0000000000000000e+00
4.9896215579326499e+00 0.0000000000000000e+00 0.0000000000000000e+00
4.9894350149840454e+00 0.0000000000000000e+00 0.0000000000000000e+00
4.9892542534551341e+00 0.0000000000000000e+00 0.0000000000000000e+00
4.9890759433631358e+00 0.0000000000000000e+00 0.0000000000000000e+00
4.9888991731850725e+00 0.0000000000000000e+00 0.0000000000000000e+00
4.9887240034908045e+00 0.0000000000000000e+00 0.0000000000000000e+00
4.9885504298274439e+00 0.0000000000000000e+00 0.0000000000000000e+00
4.9883784952637624e+00 0.0000000000000000e+00 0.0000000000000000e+00
4.9882079715092438e+00 0.0000000000000000e+00 0.0000000000000000e+00
4.9880371806688917e+00 0.0000000000000000e+00 0.0000000000000000e+00
4.9878660863814011e+00 0.0000000000000000e+00 0.0000000000000000e+00
4.9876953441201355e+00 0.0000000000000000e+00 0.0000000000000000e+00
4.9875251236787781e+00 0.0000000000000000e+00 0.0000000000000000e+00
4.9873555888373842e+00 0.0000000000000000e+00 0.0000000000000000e+00
4.9871866195122454e+00 0.0000000000000000e+00 0.0000000000000000e+00
4.9870187841978115e+00 0.0000000000000000e+00 0.0000000000000000e+00
4.9868526111605371e+00 0.0000000000000000e+00 0.0000000000000000e+00
4.9866875955451295e+00 0.0000000000000000e+00 0.0000000000000000e+00
4.9865235937614232e+00 0.0000000000000000e+00 0.0000000000000000e+00
4.9863605296984872e+00 0.0000000000000000e+00 0.0000000000000000e+00
4.9861983591354440e+00 0.0000000000000000e+00 0.0000000000000000e+00
4.9860370467376276e+00 0.0000000000000000e+00 0.0000000000000000e+00
4.9858765713460240e+00 0.0000000000000000e+00 0.0000000000000000e+00
4.9857169282701177e+00 0.0000000000000000e+00 0.0000000000000000e+00
4.9855581116584400e+00 0.0000000000000000e+00 0.0000000000000000e+00
4.9854001127272882e+00 0.0000000000000000e+00 0.0000000000000000e+00
4.9852429217615315e+00 0.0000000000000000e+00 0.0000000000000000e+00
4.9850865320228097e+00 0.0000000000000000e+00 0.0000000000000000e+00
4.9849309373984338e+00 0.0000000000000000e+00 0.0000000000000000e+00
4.9847761332267480e+00 0.0000000000000000e+00 0.0000000000000000e+00
4.9846221144397616e+00 0.0000000000000000e+00 0.0000000000000000e+00
4.9844688763652041e+00 0.0000000000000000e+00 0.0000000000000000e+00
4.9843164123175772e+00 0.0000000000000000e+00 0.0000000000000000e+00
4.9841647156115556e+00 0.0000000000000000e+00 0.0000000000000000e+00
4.9840137829778968e+00 0.0000000000000000e+00 0.0000000000000000e+00
4.9838636094832198e+00 0.0000000000000000e+00 0.0000000000000000e+00
4.9837141902712006e+00 0.0000000000000000e+00 0.0000000000000000e+00
4.9835655225749660e+00 0.0000000000000000e+00 0.0000000000000000e+00
4.9834176030142130e+00 0.0000000000000000e+00 0.0000000000000000e+00
4.9832704257104430e+00 0.0000000000000000e+00 0.0000000000000000e+00
4.9831239858261354e+00 0.0000000000000000e+00 0.0000000000000000e+00
4.9829782791732375e+00 0.0000000000000000e+00 0.0000000000000000e+00
4.9828333015488955e+00 0.0000000000000000e+00 0.0000000000000000e+00
4.9826890489740343e+00 0.0000000000000000e+00 0.0000000000000000e+00
4.9825455177017801e+00 0.0000000000000000e+00 0.0000000000000000e+00
4.9824027041841061e+00 0.0000000000000000e+00 0.0000000000000000e+00
4.9822606052440239e+00 0.0000000000000000e+00 0.0000000000000000e+00
4.9821192183513254e+00 0.0000000000000000e+00 0.0000000000000000e+00
4.9819785414138309e+00 0.0000000000000000e+00 0.0000000000000000e+00
4.9818385712762741e+00 0.0000000000000000e+00 0.0000000000000000e+00
4.9816993058620112e+00 0.0000000000000000e+00 0.0000000000000000e+00
4.9815607409545715e+00 0.0000000000000000e+00 0.0000000000000000e+00
4.9814228738759905e+00 0.0000000000000000e+00 0.0000000000000000e+00
4.9812857011791314e+00 0.0000000000000000e+00 0.0000000000000000e+00
4.9811492222355458e+00 0.0000000000000000e+00 0.0000000000000000e+00
4.9810134400374659e+00 0.0000000000000000e+00 0.0000000000000000e+00
4.9808783481514380e+00 0.0000000000000000e+00 0.0000000000000000e+00
4.9807439440385366e+00 0.0000000000000000e+00 0.0000000000000000e+00
4.9806102258299445e+00 0.0000000000000000e+00 0.0000000000000000e+00
4.9804771948471469e+00 0.0000000000000000e+00 0.0000000000000000e+00
4.9803448474751759e+00 0.0000000000000000e+00 0.0000000000000000e+00
4.9802131809058121e+00 0.0000000000000000e+00 0.0000000000000000e+00
4.9800821875463335e+00 0.0000000000000000e+00 0.0000000000000000e+00
4.9799518714424442e+00 0.0000000000000000e+00 0.0000000000000000e+00
4.9798222431410863e+00 0.0000000000000000e+00 0.0000000000000000e+00
4.9796932944899464e+00 0.0000000000000000e+00 0.0000000000000000e+00
4.9795650228317259e+00 0.0000000000000000e+00 0.0000000000000000e+00
4.9794374240069361e+00 0.0000000000000000e+00 0.0000000000000000e+00
4.9793105021215780e+00 0.0000000000000000e+00 0.0000000000000000e+00
4.9791842581004220e+00 0.0000000000000000e+00 0.0000000000000000e+00
4.9790586887027191e+00 0.0000000000000000e+00 0.0000000000000000e+00
4.9789338025959555e+00 0.0000000000000000e+00 0.0000000000000000e+00
4.9788095785144373e+00 0.0000000000000000e+00 0.0000000000000000e+00
4.9786860666982600e+00 0.0000000000000000e+00 0.0000000000000000e+00
4.9785631404030166e+00 0.0000000000000000e+00 0.0000000000000000e+00
4.9784411612889912e+00 0.0000000000000000e+00 0.0000000000000000e+00
4.9783191821749648e+00 0.0000000000000000e+00 0.0000000000000000e+00


SCALARS pressure float
LOOKUP_TABLE default
-2.6534100509655048e+01
-2.6270052586131310e+01
-2.6006004662607573e+01
-2.5741994988248599e+01
-2.5477991961900912e+01
-2.5213981708458274e+01
-2.4949948182958462e+01
-2.4685902581955808e+01
-2.4421821809751368e+01
-2.4157658370743501e+01
-2.3893419248490090e+01
-2.3629118178230879e+01
-2.3364761730881277e+01
-2.3100367652104040e+01
-2.2835951622767727e+01
-2.2571505247896354e+01
-2.2307035362145069e+01
-2.2042513502853083e+01
-2.1777895707339731e+01
-2.1513215766808525e+01
-2.1248507397912441e+01
-2.0983773920563483e+01
-2.0719023885789191e+01
-2.0454252481797550e+01
-2.0189436511735007e+01
-1.9924540786816177e+01
-1.9659586065302587e+01
-1.9394609764878467e+01
-1.9129605231203342e+01
-1.8864568078816376e+01
-1.8599498555756728e+01
-1.8334397878212940e+01
-1.8069267512091184e+01
-1.7804108047432273e+01
-1.7538913218531071e+01
-1.7273682079304290e+01
-1.7008417634291945e+01
-1.6743121594033692e+01
-1.6477795442680918e+01
-1.6212439422384389e+01
-1.5947056499624191e+01
-1.5681650199558026e+01
-1.5416219735514300e+01
-1.5150765028396599e+01
-1.4885286381326033e+01
-1.4619784284173781e+01
-1.4354259284973823e+01
-1.4088711991389056e+01
-1.3823143087501778e+01
-1.3557553263106215e+01
-1.3291943193124784e+01
-1.3026313541337716e+01
-1.2760664978361241e+01
-1.2494998174916256e+01
-1.2229313804772605e+01
-1.1963612537774496e+01
-1.1697895041635025e+01
-1.1432161972619973e+01
-1.1166413981312129e+01
-1.0900651728944267e+01
-1.0634875868823620e+01
-1.0369087050405076e+01
-1.0103285929419286e+01
-9.8374731586700968e+00
-9.5716493773654676e+00
-9.3058152242191223e+00
-9.0399713383313660e+00
-8.7741183567190326e+00
-8.5082569148615139e+00
-8.2423876469703021e+00
-7.9765111860391729e+00
-7.7106281648139410e+00
-7.4447392174559734e+00
-7.1788449793526237e+00
-6.9129460804376377e+00
-6.6470431532253826e+00
-6.3811368205248788e+00
-6.1152277080769926e+00
-5.8493164382458041e+00
-5.5834036434517049e+00
-5.3174899746201394e+00
-5.0515760453513909e+00
-4.7856624779496002e+00
-4.5197498989101090e+00
-4.2538389478978864e+00
-3.9879302466892019e+00
-3.7220244174931132e+00
-3.4561220618719548e+00
-3.1902238237109710e+00
-2.9243303875391735e+00
-2.6584423645305528e+00
-2.3925603766740640e+00
-2.1266850413875704e+00
-1.8608170111808249e+00
-1.5949569317160222e+00
-1.3291054308983663e+00
-1.0632631864662356e+00
-7.9743075492416404e-01
-5.3160898977393023e-01
-2.6579799623955924e-01
0.0000000000000000e+00


SCALARS diameter float
LOOKUP_TABLE default
9.9760403527084596e-01
9.9763710681417839e-01
9.9766162524402491e-01
9.9768560314709065e-01
9.9770800435632567e-01
9.9773039080219339e-01
9.9775161973990700e-01
9.9777215400229169e-01
9.9779643601235879e-01
9.9782152366901056e-01
9.9784644576210879e-01
9.9787130310213656e-01
9.9789553581914725e-01
9.9791807593473769e-01
9.9794065055424985e-01
9.9796296598747147e-01
9.9798544725870153e-01
9.9801243632139536e-01
9.9803886827308319e-01
9.9806253888548602e-01
9.9808572883384561e-01
9.9810809066016948e-01
9.9812979943093394e-01
9.9815272960725920e-01
9.9817811663888112e-01
9.9820518771518330e-01
9.9822892869605317e-01
9.9825262438701734e-01
9.9827633671343996e-01
9.9830004073362288e-01
9.9832349013784283e-01
9.9834697131289218e-01
9.9837021107074697e-01
9.9839396870981179e-01
9.9841812849949707e-01
9.9844229379997107e-01
9.9846646734429123e-01
9.9849065079282662e-01
9.9851484360226872e-01
9.9853902445812726e-01
9.9856283953967939e-01
9.9858666088498782e-01
9.9861048930220531e-01
9.9863432382321915e-01
9.9865816441445976e-01
9.9868201326402872e-01
9.9870587268088884e-01
9.9872973814495847e-01
9.9875360903384391e-01
9.9877748578376668e-01
9.9880136969739719e-01
9.9882526032359875e-01
9.9884915740756275e-01
9.9887306048519509e-01
9.9889696904469794e-01
9.9892088317703864e-01
9.9894480255878537e-01
9.9896872833694961e-01
9.9899265904421530e-01
9.9901659473634052e-01
9.9904053534806792e-01
9.9906448029229056e-01
9.9908842881469029e-01
9.9911238169335170e-01
9.9913633890570097e-01
9.9916030018297186e-01
9.9918426537903837e-01
9.9920823439381667e-01
9.9923220699136950e-01
9.9925618303101205e-01
9.9928016221366545e-01
9.9930414423338521e-01
9.9932812856877606e-01
9.9935211520264411e-01
9.9937610399725352e-01
9.9940009473167357e-01
9.9942408817298989e-01
9.9944808303840771e-01
9.9947208035144297e-01
9.9949607661480078e-01
9.9952007419960787e-01
9.9954407350543739e-01
9.9956807334437781e-01
9.9959207380830672e-01
9.9961607347679748e-01
9.9964007522265075e-01
9.9966407731665741e-01
9.9968808273178078e-01
9.9971208168110903e-01
9.9973608152176752e-01
9.9976008033374186e-01
9.9978408021528886e-01
9.9980807869788135e-01
9.9983207498642079e-01
9.9985607033067636e-01
9.9988006303005594e-01
9.9990405447729658e-01
9.9992804410249314e-01
9.9995203064505767e-01
9.9997601119075141e-01
9.9999998539874624e-01


SCALARS iters float
LOOKUP_TABLE default
5.0000000000000000e+00
5.0000000000000000e+00
5.0000000000000000e+00
5.0000000000000000e+00
5.0000000000000000e+00
5.0000000000000000e+00
5.0000000000000000e+00
5.0000000000000000e+00
5.0000000000000000e+00
5.0000000000000000e+00
5.0000000000000000e+00
5.0000000000000000e+00
5.0000000000000000e+00
5.0000000000000000e+00
5.0000000000000000e+00
5.0000000000000000e+00
5.0000000000000000e+00
5.0000000000000000e+00
5.0000000000000000e+00
5.0000000000000000e+00
5.0000000000000000e+00
5.0000000000000000e+00
5.0000000000000000e+00
5.0000000000000000e+00
5.0000000000000000e+00
5.0000000000000000e+00
5.0000000000000000e+00
5.0000000000000000e+00
5.0000000000000000e+00
5.0000000000000000e+00
5.0000000000000000e+00
5.0000000000000000e+00
5.0000000000000000e+00
5.0000000000000000e+00
5.0000000000000000e+00
5.0000000000000000e+00
5.0000000000000000e+00
5.0000000000000000e+00
5.0000000000000000e+00
5.0000000000000000e+00
5.0000000000000000e+00
5.0000000000000000e+00
5.0000000000000000e+00
5.0000000000000000e+00
5.0000000000000000e+00
5.0000000000000000e+00
5.0000000000000000e+00
5.0000000000000000e+00
5.0000000000000000e+00
5.0000000000000000e+00
5.0000000000000000e+00
5.0000000000000000e+00
5.0000000000000000e+00
5.0000000000000000e+00
5.0000000000000000e+00
5.0000000000000000e+00
5.0000000000000000e+00
5.0000000000000000e+00
5.0000000000000000e+00
5.0000000000000000e+00
5.0000000000000000e+00
5.0000000000000000e+00
5.0000000000000000e+00
5.0000000000000000e+00
5.0000000000000000e+00
5.0000000000000000e+00
5.0000000000000000e+00
5.0000000000000000e+00
5.0000000000000000e+00
5.0000000000000000e+00
5.0000000000000000e+00
5.0000000000000000e+00
5.0000000000000000e+00
5.0000000000000000e+00
5.0000000000000000e+00
5.0000000000000000e+00
5.0000000000000000e+00
5.0000000000000000e+00
5.0000000000000000e+00
5.0000000000000000e+00
5.0000000000000000e+00
5.0000000000000000e+00
5.0000000000000000e+00
5.0000000000000000e+00
5.0000000000000000e+00
5.0000000000000000e+00
5.0000000000000000e+00
5.0000000000000000e+00
5.0000000000000000e+00
5.0000000000000000e+00
5.0000000000000000e+00
5.0000000000000000e+00
5.0000000000000000e+00
5.0000000000000000e+00
5.0000000000000000e+00
5.0000000000000000e+00
5.0000000000000000e+00
5.0000000000000000e+00
5.0000000000000000e+00
5.0000000000000000e+00
5.0000000000000000e+00


