# vtk DataFile Version 2.0

ASCII

DATASET UNSTRUCTURED_GRID

POINTS 101 float

0.0000000000000000e+00 0.0000000000000000e+00 0.0000000000000000e+00
1.0000000000000001e-01 0.0000000000000000e+00 0.0000000000000000e+00
2.0000000000000001e-01 0.0000000000000000e+00 0.0000000000000000e+00
3.0000000000000004e-01 0.0000000000000000e+00 0.0000000000000000e+00
4.0000000000000002e-01 0.0000000000000000e+00 0.0000000000000000e+00
5.0000000000000000e-01 0.0000000000000000e+00 0.0000000000000000e+00
6.0000000000000009e-01 0.0000000000000000e+00 0.0000000000000000e+00
7.0000000000000007e-01 0.0000000000000000e+00 0.0000000000000000e+00
8.0000000000000004e-01 0.0000000000000000e+00 0.0000000000000000e+00
9.0000000000000002e-01 0.0000000000000000e+00 0.0000000000000000e+00
1.0000000000000000e+00 0.0000000000000000e+00 0.0000000000000000e+00
1.1000000000000001e+00 0.0000000000000000e+00 0.0000000000000000e+00
1.2000000000000002e+00 0.0000000000000000e+00 0.0000000000000000e+00
1.3000000000000000e+00 0.0000000000000000e+00 0.0000000000000000e+00
1.4000000000000001e+00 0.0000000000000000e+00 0.0000000000000000e+00
1.5000000000000000e+00 0.0000000000000000e+00 0.0000000000000000e+00
1.6000000000000001e+00 0.0000000000000000e+00 0.0000000000000000e+00
1.7000000000000002e+00 0.0000000000000000e+00 0.0000000000000000e+00
1.8000000000000000e+00 0.0000000000000000e+00 0.0000000000000000e+00
1.9000000000000001e+00 0.0000000000000000e+00 0.0000000000000000e+00
2.0000000000000000e+00 0.0000000000000000e+00 0.0000000000000000e+00
2.1000000000000001e+00 0.0000000000000000e+00 0.0000000000000000e+00
2.2000000000000002e+00 0.0000000000000000e+00 0.0000000000000000e+00
2.3000000000000003e+00 0.0000000000000000e+00 0.0000000000000000e+00
2.4000000000000004e+00 0.0000000000000000e+00 0.0000000000000000e+00
2.5000000000000000e+00 0.0000000000000000e+00 0.0000000000000000e+00
2.6000000000000001e+00 0.0000000000000000e+00 0.0000000000000000e+00
2.7000000000000002e+00 0.0000000000000000e+00 0.0000000000000000e+00
2.8000000000000003e+00 0.0000000000000000e+00 0.0000000000000000e+00
2.9000000000000004e+00 0.0000000000000000e+00 0.0000000000000000e+00
3.0000000000000000e+00 0.0000000000000000e+00 0.0000000000000000e+00
3.1000000000000001e+00 0.0000000000000000e+00 0.0000000000000000e+00
3.2000000000000002e+00 0.0000000000000000e+00 0.0000000000000000e+00
3.3000000000000003e+00 0.0000000000000000e+00 0.0000000000000000e+00
3.4000000000000004e+00 0.0000000000000000e+00 0.0000000000000000e+00
3.5000000000000000e+00 0.0000000000000000e+00 0.0000000000000000e+00
3.6000000000000001e+00 0.0000000000000000e+00 0.0000000000000000e+00
3.7000000000000002e+00 0.0000000000000000e+00 0.0000000000000000e+00
3.8000000000000003e+00 0.0000000000000000e+00 0.0000000000000000e+00
3.9000000000000004e+00 0.0000000000000000e+00 0.0000000000000000e+00
4.0000000000000000e+00 0.0000000000000000e+00 0.0000000000000000e+00
4.1000000000000005e+00 0.0000000000000000e+00 0.0000000000000000e+00
4.2000000000000002e+00 0.0000000000000000e+00 0.0000000000000000e+00
4.2999999999999998e+00 0.0000000000000000e+00 0.0000000000000000e+00
4.4000000000000004e+00 0.0000000000000000e+00 0.0000000000000000e+00
4.5000000000000000e+00 0.0000000000000000e+00 0.0000000000000000e+00
4.6000000000000005e+00 0.0000000000000000e+00 0.0000000000000000e+00
4.7000000000000002e+00 0.0000000000000000e+00 0.0000000000000000e+00
4.8000000000000007e+00 0.0000000000000000e+00 0.0000000000000000e+00
4.9000000000000004e+00 0.0000000000000000e+00 0.0000000000000000e+00
5.0000000000000000e+00 0.0000000000000000e+00 0.0000000000000000e+00
5.1000000000000005e+00 0.0000000000000000e+00 0.0000000000000000e+00
5.2000000000000002e+00 0.0000000000000000e+00 0.0000000000000000e+00
5.3000000000000007e+00 0.0000000000000000e+00 0.0000000000000000e+00
5.4000000000000004e+00 0.0000000000000000e+00 0.0000000000000000e+00
5.5000000000000000e+00 0.0000000000000000e+00 0.0000000000000000e+00
5.6000000000000005e+00 0.0000000000000000e+00 0.0000000000000000e+00
5.7000000000000002e+00 0.0000000000000000e+00 0.0000000000000000e+00
5.8000000000000007e+00 0.0000000000000000e+00 0.0000000000000000e+00
5.9000000000000004e+00 0.0000000000000000e+00 0.0000000000000000e+00
6.0000000000000000e+00 0.0000000000000000e+00 0.0000000000000000e+00
6.1000000000000005e+00 0.0000000000000000e+00 0.0000000000000000e+00
6.2000000000000002e+00 0.0000000000000000e+00 0.0000000000000000e+00
6.3000000000000007e+00 0.0000000000000000e+00 0.0000000000000000e+00
6.4000000000000004e+00 0.0000000000000000e+00 0.0000000000000000e+00
6.5000000000000000e+00 0.0000000000000000e+00 0.0000000000000000e+00
6.6000000000000005e+00 0.0000000000000000e+00 0.0000000000000000e+00
6.7000000000000002e+00 0.0000000000000000e+00 0.0000000000000000e+00
6.8000000000000007e+00 0.0000000000000000e+00 0.0000000000000000e+00
6.9000000000000004e+00 0.0000000000000000e+00 0.0000000000000000e+00
7.0000000000000000e+00 0.0000000000000000e+00 0.0000000000000000e+00
7.1000000000000005e+00 0.0000000000000000e+00 0.0000000000000000e+00
7.2000000000000002e+00 0.0000000000000000e+00 0.0000000000000000e+00
7.3000000000000007e+00 0.0000000000000000e+00 0.0000000000000000e+00
7.4000000000000004e+00 0.0000000000000000e+00 0.0000000000000000e+00
7.5000000000000000e+00 0.0000000000000000e+00 0.0000000000000000e+00
7.6000000000000005e+00 0.0000000000000000e+00 0.0000000000000000e+00
7.7000000000000002e+00 0.0000000000000000e+00 0.0000000000000000e+00
7.8000000000000007e+00 0.0000000000000000e+00 0.0000000000000000e+00
7.9000000000000004e+00 0.0000000000000000e+00 0.0000000000000000e+00
8.0000000000000000e+00 0.0000000000000000e+00 0.0000000000000000e+00
8.0999999999999996e+00 0.0000000000000000e+00 0.0000000000000000e+00
8.2000000000000011e+00 0.0000000000000000e+00 0.0000000000000000e+00
8.3000000000000007e+00 0.0000000000000000e+00 0.0000000000000000e+00
8.4000000000000004e+00 0.0000000000000000e+00 0.0000000000000000e+00
8.5000000000000000e+00 0.0000000000000000e+00 0.0000000000000000e+00
8.5999999999999996e+00 0.0000000000000000e+00 0.0000000000000000e+00
8.7000000000000011e+00 0.0000000000000000e+00 0.0000000000000000e+00
8.8000000000000007e+00 0.0000000000000000e+00 0.0000000000000000e+00
8.9000000000000004e+00 0.0000000000000000e+00 0.0000000000000000e+00
9.0000000000000000e+00 0.0000000000000000e+00 0.0000000000000000e+00
9.0999999999999996e+00 0.0000000000000000e+00 0.0000000000000000e+00
9.2000000000000011e+00 0.0000000000000000e+00 0.0000000000000000e+00
9.3000000000000007e+00 0.0000000000000000e+00 0.0000000000000000e+00
9.4000000000000004e+00 0.0000000000000000e+00 0.0000000000000000e+00
9.5000000000000000e+00 0.0000000000000000e+00 0.0000000000000000e+00
9.6000000000000014e+00 0.0000000000000000e+00 0.0000000000000000e+00
9.7000000000000011e+00 0.0000000000000000e+00 0.0000000000000000e+00
9.8000000000000007e+00 0.0000000000000000e+00 0.0000000000000000e+00
9.9000000000000004e+00 0.0000000000000000e+00 0.0000000000000000e+00
1.0000000000000000e+01 0.0000000000000000e+00 0.0000000000000000e+00

POINT_DATA 101

VECTORS velocity float
5.8647770675774957e+00 0.0000000000000000e+00 0.0000000000000000e+00
5.8649923126998482e+00 0.0000000000000000e+00 0.0000000000000000e+00
5.8652029993135066e+00 0.0000000000000000e+00 0.0000000000000000e+00
5.8654103338719885e+00 0.0000000000000000e+00 0.0000000000000000e+00
5.8656150269436154e+00 0.0000000000000000e+00 0.0000000000000000e+00
5.8658184737930750e+00 0.0000000000000000e+00 0.0000000000000000e+00
5.8660236384303781e+00 0.0000000000000000e+00 0.0000000000000000e+00
5.8662323483862417e+00 0.0000000000000000e+00 0.0000000000000000e+00
5.8664398156631483e+00 0.0000000000000000e+00 0.0000000000000000e+00
5.8666401855484169e+00 0.0000000000000000e+00 0.0000000000000000e+00
5.8668352770907619e+00 0.0000000000000000e+00 0.0000000000000000e+00
5.8670266371126214e+00 0.0000000000000000e+00 0.0000000000000000e+00
5.8672145619702540e+00 0.0000000000000000e+00 0.0000000000000000e+00
5.8674013751539844e+00 0.0000000000000000e+00 0.0000000000000000e+00
5.8675883931605384e+00 0.0000000000000000e+00 0.0000000000000000e+00
5.8677743209894349e+00 0.0000000000000000e+00 0.0000000000000000e+00
5.8679584959491526e+00 0.0000000000000000e+00 0.0000000000000000e+00
5.8681403830389041e+00 0.0000000000000000e+00 0.0000000000000000e+00
5.8683181023481312e+00 0.0000000000000000e+00 0.0000000000000000e+00
5.8684907553101295e+00 0.0000000000000000e+00 0.0000000000000000e+00
5.8686591616915953e+00 0.0000000000000000e+00 0.0000000000000000e+00
5.8688245683450004e+00 0.0000000000000000e+00 0.0000000000000000e+00
5.8689879313380198e+00 0.0000000000000000e+00 0.0000000000000000e+00
5.8691506315618209e+00 0.0000000000000000e+00 0.0000000000000000e+00
5.8693122573602530e+00 0.0000000000000000e+00 0.0000000000000000e+00
5.8694709660909004e+00 0.0000000000000000e+00 0.0000000000000000e+00
5.8696265936677579e+00 0.0000000000000000e+00 0.0000000000000000e+00
5.8697794649181549e+00 0.0000000000000000e+00 0.0000000000000000e+00
5.8699297387741369e+00 0.0000000000000000e+00 0.0000000000000000e+00
5.8700765972998781e+00 0.0000000000000000e+00 0.0000000000000000e+00
5.8702195100929568e+00 0.0000000000000000e+00 0.0000000000000000e+00
5.8703590317971042e+00 0.0000000000000000e+00 0.0000000000000000e+00
5.8704956036342937e+00 0.0000000000000000e+00 0.0000000000000000e+00
5.8706299820492207e+00 0.0000000000000000e+00 0.0000000000000000e+00
5.8707620122468018e+00 0.0000000000000000e+00 0.0000000000000000e+00
5.8708914132648795e+00 0.0000000000000000e+00 0.0000000000000000e+00
5.8710180947963151e+00 0.0000000000000000e+00 0.0000000000000000e+00
5.8711420153664573e+00 0.0000000000000000e+00 0.0000000000000000e+00
5.8712631165496987e+00 0.0000000000000000e+00 0.0000000000000000e+00
5.8713814856904873e+00 0.0000000000000000e+00 0.0000000000000000e+00
5.8714972981006870e+00 0.0000000000000000e+00 0.0000000000000000e+00
5.8716104491533372e+00 0.0000000000000000e+00 0.0000000000000000e+00
5.8717209174738700e+00 0.0000000000000000e+00 0.0000000000000000e+00
5.8718286902119488e+00 0.0000000000000000e+00 0.0000000000000000e+00
5.8719337590748975e+00 0.0000000000000000e+00 0.0000000000000000e+00
5.8720361198107680e+00 0.0000000000000000e+00 0.0000000000000000e+00
5.8721357685960713e+00 0.0000000000000000e+00 0.0000000000000000e+00
5.8722327002503354e+00 0.0000000000000000e+00 0.0000000000000000e+00
5.8723269114694725e+00 0.0000000000000000e+00 0.0000000000000000e+00
5.8724183995438235e+00 0.0000000000000000e+00 0.0000000000000000e+00
5.8725071617783824e+00 0.0000000000000000e+00 0.0000000000000000e+00
5.8725931955255755e+00 0.0000000000000000e+00 0.0000000000000000e+00
5.8726764983521704e+00 0.0000000000000000e+00 0.0000000000000000e+00
5.8727570675547129e+00 0.0000000000000000e+00 0.0000000000000000e+00
5.8728349007875185e+00 0.0000000000000000e+00 0.0000000000000000e+00
5.8729099958096258e+00 0.0000000000000000e+00 0.0000000000000000e+00
5.8729823495530180e+00 0.0000000000000000e+00 0.0000000000000000e+00
5.8730519599325772e+00 0.0000000000000000e+00 0.0000000000000000e+00
5.8731188253974240e+00 0.0000000000000000e+00 0.0000000000000000e+00
5.8731829438354817e+00 0.0000000000000000e+00 0.0000000000000000e+00
5.8732443130922007e+00 0.0000000000000000e+00 0.0000000000000000e+00
5.8733029307859219e+00 0.0000000000000000e+00 0.0000000000000000e+00
5.8733587946370713e+00 0.0000000000000000e+00 0.0000000000000000e+00
5.8734119026003775e+00 0.0000000000000000e+00 0.0000000000000000e+00
5.8734622527627467e+00 0.0000000000000000e+00 0.0000000000000000e+00
5.8735098432758237e+00 0.0000000000000000e+00 0.0000000000000000e+00
5.8735546722053593e+00 0.0000000000000000e+00 0.0000000000000000e+00
5.8735967378835277e+00 0.0000000000000000e+00 0.0000000000000000e+00
5.8736360386492823e+00 0.0000000000000000e+00 0.0000000000000000e+00
5.8736725727305013e+00 0.0000000000000000e+00 0.0000000000000000e+00
5.8737063383435730e+00 0.0000000000000000e+00 0.0000000000000000e+00
5.8737373336280259e+00 0.0000000000000000e+00 0.0000000000000000e+00
5.8737655566778972e+00 0.0000000000000000e+00 0.0000000000000000e+00
5.8737910060078571e+00 0.0000000000000000e+00 0.0000000000000000e+00
5.8738136800162168e+00 0.0000000000000000e+00 0.0000000000000000e+00
5.8738335772688632e+00 0.0000000000000000e+00 0.0000000000000000e+00
5.8738506968207602e+00 0.0000000000000000e+00 0.0000000000000000e+00
5.8738650369184953e+00 0.0000000000000000e+00 0.0000000000000000e+00
5.8738765962772961e+00 0.0000000000000000e+00 0.0000000000000000e+00
5.8738853733885135e+00 0.0000000000000000e+00 0.0000000000000000e+00
5.8738913667695982e+00 0.0000000000000000e+00 0.0000000000000000e+00
5.8738945751930105e+00 0.0000000000000000e+00 0.0000000000000000e+00
5.8738949973320649e+00 0.0000000000000000e+00 0.0000000000000000e+00
5.8738926334219537e+00 0.0000000000000000e+00 0.0000000000000000e+00
5.8738874817040401e+00 0.0000000000000000e+00 0.0000000000000000e+00
5.8738795389874783e+00 0.0000000000000000e+00 0.0000000000000000e+00
5.8738688051430215e+00 0.0000000000000000e+00 0.0000000000000000e+00
5.8738552795954124e+00 0.0000000000000000e+00 0.0000000000000000e+00
5.8738389607434014e+00 0.0000000000000000e+00 0.0000000000000000e+00
5.8738198489161064e+00 0.0000000000000000e+00 0.0000000000000000e+00
5.8737979444559594e+00 0.0000000000000000e+00 0.0000000000000000e+00
5.8737732439418489e+00 0.0000000000000000e+00 0.0000000000000000e+00
5.8737457476584387e+00 0.0000000000000000e+00 0.0000000000000000e+00
5.8737154527902282e+00 0.0000000000000000e+00 0.0000000000000000e+00
5.8736823683622852e+00 0.0000000000000000e+00 0.0000000000000000e+00
5.8736464636202825e+00 0.0000000000000000e+00 0.0000000000000000e+00
5.8736078174796980e+00 0.0000000000000000e+00 0.0000000000000000e+00
5.8735662197829983e+00 0.0000000000000000e+00 0.0000000000000000e+00
5.8735222241892977e+00 0.0000000000000000e+00 0.0000000000000000e+00
5.8734743616810663e+00 0.0000000000000000e+00 0.0000000000000000e+00
5.8734264991728358e+00 0.0000000000000000e+00 0.0000000000000000e+00


SCALARS pressure float
LOOKUP_TABLE default
-1.0509636296433891e+01
-1.0403116998180060e+01
-1.0296597699926229e+01
-1.0190106039898183e+01
-1.0083655983726487e+01
-9.9772553650667923e+00
-9.8709133592758036e+00
-9.7646461512409086e+00
-9.6584667267921418e+00
-9.5523577219034035e+00
-9.4462881193446737e+00
-9.3402573745297754e+00
-9.2342717761407727e+00
-9.1283333504338877e+00
-9.0224513803999091e+00
-8.9166329659909316e+00
-8.8108729137430277e+00
-8.7051665406398673e+00
-8.5995107968065057e+00
-8.4938958824942006e+00
-8.3883139075218054e+00
-8.2827652577228612e+00
-8.1772542063530818e+00
-8.0717848258005169e+00
-7.9663636861915892e+00
-7.8609914678360147e+00
-7.7556602471490699e+00
-7.6503658853654013e+00
-7.5451078783790715e+00
-7.4398860122423836e+00
-7.3346957600419289e+00
-7.2295326391627235e+00
-7.1243970175948048e+00
-7.0192899971765454e+00
-6.9142144724010661e+00
-6.8091698085872689e+00
-6.7041538552890412e+00
-6.5991648937756207e+00
-6.4942015336165788e+00
-6.3892623449808967e+00
-6.2843466835143378e+00
-6.1794547070186425e+00
-6.0745853981547375e+00
-5.9697377821395925e+00
-5.8649109181055401e+00
-5.7601038859741776e+00
-5.6553157853829630e+00
-5.5505457207831350e+00
-5.4457927893935700e+00
-5.3410560933676452e+00
-5.2363347380049898e+00
-5.1316278291623503e+00
-5.0269344724225729e+00
-4.9222537738038250e+00
-4.8175848377192922e+00
-4.7129267692427250e+00
-4.6082786735229320e+00
-4.5036396516468269e+00
-4.3990088077701532e+00
-4.2943852487163019e+00
-4.1897680791467051e+00
-4.0851564026272769e+00
-3.9805493208438301e+00
-3.8759459349319223e+00
-3.7713453467032383e+00
-3.6667466584224107e+00
-3.5621489724276829e+00
-3.4575513903808122e+00
-3.3529530146545263e+00
-3.2483529475463562e+00
-3.1437502905518402e+00
-3.0391441445788505e+00
-2.9345336096442582e+00
-2.8299177848907715e+00
-2.7252957708399803e+00
-2.6206666675078187e+00
-2.5160295753953150e+00
-2.4113835971434736e+00
-2.3067278321593920e+00
-2.2020613807266600e+00
-2.0973833416034147e+00
-1.9926928133830657e+00
-1.8879888955966360e+00
-1.7832706873378870e+00
-1.6785372942578700e+00
-1.5737878147610986e+00
-1.4690213387200157e+00
-1.3642369678182980e+00
-1.2594338041980602e+00
-1.1546109442431458e+00
-1.0497674922362450e+00
-9.4490255472989826e-01
-8.4001522183799426e-01
-7.3510459552949536e-01
-6.3016976639390720e-01
-5.2520987691587406e-01
-4.2022389954416711e-01
-3.1521126663232496e-01
-2.1017020316566967e-01
-1.0510212110375097e-01
0.0000000000000000e+00


SCALARS diameter float
LOOKUP_TABLE default
9.9905025719752294e-01
9.9906121931067904e-01
9.9907152237703445e-01
9.9908185054401588e-01
9.9909196736106687e-01
9.9910205898626259e-01
9.9911112771826205e-01
9.9911903415449632e-01
9.9912655677834894e-01
9.9913621397400543e-01
9.9914662500214768e-01
9.9915703568511782e-01
9.9916754657435358e-01
9.9917777806744557e-01
9.9918698456263455e-01
9.9919599332939468e-01
9.9920488088407056e-01
9.9921374378481265e-01
9.9922304081134339e-01
9.9923308342773187e-01
9.9924333090283601e-01
9.9925353768768455e-01
9.9926335522900733e-01
9.9927271014085184e-01
9.9928144147735409e-01
9.9929055708332237e-01
9.9929994268896039e-01
9.9930927463194708e-01
9.9931861306438086e-01
9.9932799517352189e-01
9.9933781864356586e-01
9.9934763822143524e-01
9.9935749329387547e-01
9.9936708802484231e-01
9.9937655131631564e-01
9.9938601904487889e-01
9.9939549106762349e-01
9.9940496772622411e-01
9.9941444848090233e-01
9.9942392967223270e-01
9.9943333396546219e-01
9.9944273700240505e-01
9.9945214083972400e-01
9.9946154610939564e-01
9.9947095304347522e-01
9.9948036145827901e-01
9.9948977100243419e-01
9.9949918252125813e-01
9.9950859594065478e-01
9.9951801110212057e-01
9.9952742793859661e-01
9.9953684651238328e-01
9.9954626673292568e-01
9.9955568865518296e-01
9.9956511229026968e-01
9.9957453749651737e-01
9.9958396446278708e-01
9.9959339320511742e-01
9.9960282338373463e-01
9.9961225502784312e-01
9.9962168815152208e-01
9.9963112279712363e-01
9.9964055903223326e-01
9.9964999675902300e-01
9.9965943598089868e-01
9.9966887659755277e-01
9.9967831864834222e-01
9.9968776205168053e-01
9.9969720675330409e-01
9.9970665274253745e-01
9.9971610003725764e-01
9.9972554863869723e-01
9.9973499860432147e-01
9.9974444986503885e-01
9.9975390233951777e-01
9.9976335606745459e-01
9.9977281081109115e-01
9.9978226665740744e-01
9.9979172364778657e-01
9.9980118168243803e-01
9.9981064085129079e-01
9.9982010102613150e-01
9.9982956227584352e-01
9.9983902425030502e-01
9.9984848681476868e-01
9.9985795083880180e-01
9.9986741602634743e-01
9.9987688179739798e-01
9.9988634882273686e-01
9.9989581627727175e-01
9.9990528420399027e-01
9.9991475264980290e-01
9.9992422262651948e-01
9.9993369254468967e-01
9.9994316322258869e-01
9.9995263472090234e-01
9.9996210671817809e-01
9.9997157926697033e-01
9.9998105231796020e-01
9.9999052646756714e-01
1.0000000026504776e+00


SCALARS iters float
LOOKUP_TABLE default
6.0000000000000000e+00
6.0000000000000000e+00
6.0000000000000000e+00
6.0000000000000000e+00
6.0000000000000000e+00
6.0000000000000000e+00
6.0000000000000000e+00
6.0000000000000000e+00
6.0000000000000000e+00
6.0000000000000000e+00
6.0000000000000000e+00
6.0000000000000000e+00
6.0000000000000000e+00
6.0000000000000000e+00
6.0000000000000000e+00
6.0000000000000000e+00
6.0000000000000000e+00
6.0000000000000000e+00
6.0000000000000000e+00
6.0000000000000000e+00
6.0000000000000000e+00
6.0000000000000000e+00
6.0000000000000000e+00
6.0000000000000000e+00
6.0000000000000000e+00
6.0000000000000000e+00
6.0000000000000000e+00
6.0000000000000000e+00
6.0000000000000000e+00
6.0000000000000000e+00
6.0000000000000000e+00
6.0000000000000000e+00
6.0000000000000000e+00
6.0000000000000000e+00
6.0000000000000000e+00
6.0000000000000000e+00
6.0000000000000000e+00
6.0000000000000000e+00
6.0000000000000000e+00
6.0000000000000000e+00
6.0000000000000000e+00
6.0000000000000000e+00
6.0000000000000000e+00
6.0000000000000000e+00
6.0000000000000000e+00
6.0000000000000000e+00
6.0000000000000000e+00
6.0000000000000000e+00
6.0000000000000000e+00
6.0000000000000000e+00
6.0000000000000000e+00
6.0000000000000000e+00
6.0000000000000000e+00
6.0000000000000000e+00
6.0000000000000000e+00
6.0000000000000000e+00
6.0000000000000000e+00
6.0000000000000000e+00
6.0000000000000000e+00
6.0000000000000000e+00
6.0000000000000000e+00
6.0000000000000000e+00
6.0000000000000000e+00
6.0000000000000000e+00
6.0000000000000000e+00
6.0000000000000000e+00
6.0000000000000000e+00
6.0000000000000000e+00
6.0000000000000000e+00
6.0000000000000000e+00
6.0000000000000000e+00
6.0000000000000000e+00
6.0000000000000000e+00
6.0000000000000000e+00
6.0000000000000000e+00
6.0000000000000000e+00
6.0000000000000000e+00
6.0000000000000000e+00
6.0000000000000000e+00
6.0000000000000000e+00
6.0000000000000000e+00
6.0000000000000000e+00
6.0000000000000000e+00
6.0000000000000000e+00
6.0000000000000000e+00
6.0000000000000000e+00
6.0000000000000000e+00
6.0000000000000000e+00
6.0000000000000000e+00
6.0000000000000000e+00
6.0000000000000000e+00
6.0000000000000000e+00
6.0000000000000000e+00
6.0000000000000000e+00
6.0000000000000000e+00
6.0000000000000000e+00
6.0000000000000000e+00
6.0000000000000000e+00
6.0000000000000000e+00
6.0000000000000000e+00
6.0000000000000000e+00


