# vtk DataFile Version 2.0

ASCII

DATASET UNSTRUCTURED_GRID

POINTS 101 float

0.0000000000000000e+00 0.0000000000000000e+00 0.0000000000000000e+00
1.0000000000000001e-01 0.0000000000000000e+00 0.0000000000000000e+00
2.0000000000000001e-01 0.0000000000000000e+00 0.0000000000000000e+00
3.0000000000000004e-01 0.0000000000000000e+00 0.0000000000000000e+00
4.0000000000000002e-01 0.0000000000000000e+00 0.0000000000000000e+00
5.0000000000000000e-01 0.0000000000000000e+00 0.0000000000000000e+00
6.0000000000000009e-01 0.0000000000000000e+00 0.0000000000000000e+00
7.0000000000000007e-01 0.0000000000000000e+00 0.0000000000000000e+00
8.0000000000000004e-01 0.0000000000000000e+00 0.0000000000000000e+00
9.0000000000000002e-01 0.0000000000000000e+00 0.0000000000000000e+00
1.0000000000000000e+00 0.0000000000000000e+00 0.0000000000000000e+00
1.1000000000000001e+00 0.0000000000000000e+00 0.0000000000000000e+00
1.2000000000000002e+00 0.0000000000000000e+00 0.0000000000000000e+00
1.3000000000000000e+00 0.0000000000000000e+00 0.0000000000000000e+00
1.4000000000000001e+00 0.0000000000000000e+00 0.0000000000000000e+00
1.5000000000000000e+00 0.0000000000000000e+00 0.0000000000000000e+00
1.6000000000000001e+00 0.0000000000000000e+00 0.0000000000000000e+00
1.7000000000000002e+00 0.0000000000000000e+00 0.0000000000000000e+00
1.8000000000000000e+00 0.0000000000000000e+00 0.0000000000000000e+00
1.9000000000000001e+00 0.0000000000000000e+00 0.0000000000000000e+00
2.0000000000000000e+00 0.0000000000000000e+00 0.0000000000000000e+00
2.1000000000000001e+00 0.0000000000000000e+00 0.0000000000000000e+00
2.2000000000000002e+00 0.0000000000000000e+00 0.0000000000000000e+00
2.3000000000000003e+00 0.0000000000000000e+00 0.0000000000000000e+00
2.4000000000000004e+00 0.0000000000000000e+00 0.0000000000000000e+00
2.5000000000000000e+00 0.0000000000000000e+00 0.0000000000000000e+00
2.6000000000000001e+00 0.0000000000000000e+00 0.0000000000000000e+00
2.7000000000000002e+00 0.0000000000000000e+00 0.0000000000000000e+00
2.8000000000000003e+00 0.0000000000000000e+00 0.0000000000000000e+00
2.9000000000000004e+00 0.0000000000000000e+00 0.0000000000000000e+00
3.0000000000000000e+00 0.0000000000000000e+00 0.0000000000000000e+00
3.1000000000000001e+00 0.0000000000000000e+00 0.0000000000000000e+00
3.2000000000000002e+00 0.0000000000000000e+00 0.0000000000000000e+00
3.3000000000000003e+00 0.0000000000000000e+00 0.0000000000000000e+00
3.4000000000000004e+00 0.0000000000000000e+00 0.0000000000000000e+00
3.5000000000000000e+00 0.0000000000000000e+00 0.0000000000000000e+00
3.6000000000000001e+00 0.0000000000000000e+00 0.0000000000000000e+00
3.7000000000000002e+00 0.0000000000000000e+00 0.0000000000000000e+00
3.8000000000000003e+00 0.0000000000000000e+00 0.0000000000000000e+00
3.9000000000000004e+00 0.0000000000000000e+00 0.0000000000000000e+00
4.0000000000000000e+00 0.0000000000000000e+00 0.0000000000000000e+00
4.1000000000000005e+00 0.0000000000000000e+00 0.0000000000000000e+00
4.2000000000000002e+00 0.0000000000000000e+00 0.0000000000000000e+00
4.2999999999999998e+00 0.0000000000000000e+00 0.0000000000000000e+00
4.4000000000000004e+00 0.0000000000000000e+00 0.0000000000000000e+00
4.5000000000000000e+00 0.0000000000000000e+00 0.0000000000000000e+00
4.6000000000000005e+00 0.0000000000000000e+00 0.0000000000000000e+00
4.7000000000000002e+00 0.0000000000000000e+00 0.0000000000000000e+00
4.8000000000000007e+00 0.0000000000000000e+00 0.0000000000000000e+00
4.9000000000000004e+00 0.0000000000000000e+00 0.0000000000000000e+00
5.0000000000000000e+00 0.0000000000000000e+00 0.0000000000000000e+00
5.1000000000000005e+00 0.0000000000000000e+00 0.0000000000000000e+00
5.2000000000000002e+00 0.0000000000000000e+00 0.0000000000000000e+00
5.3000000000000007e+00 0.0000000000000000e+00 0.0000000000000000e+00
5.4000000000000004e+00 0.0000000000000000e+00 0.0000000000000000e+00
5.5000000000000000e+00 0.0000000000000000e+00 0.0000000000000000e+00
5.6000000000000005e+00 0.0000000000000000e+00 0.0000000000000000e+00
5.7000000000000002e+00 0.0000000000000000e+00 0.0000000000000000e+00
5.8000000000000007e+00 0.0000000000000000e+00 0.0000000000000000e+00
5.9000000000000004e+00 0.0000000000000000e+00 0.0000000000000000e+00
6.0000000000000000e+00 0.0000000000000000e+00 0.0000000000000000e+00
6.1000000000000005e+00 0.0000000000000000e+00 0.0000000000000000e+00
6.2000000000000002e+00 0.0000000000000000e+00 0.0000000000000000e+00
6.3000000000000007e+00 0.0000000000000000e+00 0.0000000000000000e+00
6.4000000000000004e+00 0.0000000000000000e+00 0.0000000000000000e+00
6.5000000000000000e+00 0.0000000000000000e+00 0.0000000000000000e+00
6.6000000000000005e+00 0.0000000000000000e+00 0.0000000000000000e+00
6.7000000000000002e+00 0.0000000000000000e+00 0.0000000000000000e+00
6.8000000000000007e+00 0.0000000000000000e+00 0.0000000000000000e+00
6.9000000000000004e+00 0.0000000000000000e+00 0.0000000000000000e+00
7.0000000000000000e+00 0.0000000000000000e+00 0.0000000000000000e+00
7.1000000000000005e+00 0.0000000000000000e+00 0.0000000000000000e+00
7.2000000000000002e+00 0.0000000000000000e+00 0.0000000000000000e+00
7.3000000000000007e+00 0.0000000000000000e+00 0.0000000000000000e+00
7.4000000000000004e+00 0.0000000000000000e+00 0.0000000000000000e+00
7.5000000000000000e+00 0.0000000000000000e+00 0.0000000000000000e+00
7.6000000000000005e+00 0.0000000000000000e+00 0.0000000000000000e+00
7.7000000000000002e+00 0.0000000000000000e+00 0.0000000000000000e+00
7.8000000000000007e+00 0.0000000000000000e+00 0.0000000000000000e+00
7.9000000000000004e+00 0.0000000000000000e+00 0.0000000000000000e+00
8.0000000000000000e+00 0.0000000000000000e+00 0.0000000000000000e+00
8.0999999999999996e+00 0.0000000000000000e+00 0.0000000000000000e+00
8.2000000000000011e+00 0.0000000000000000e+00 0.0000000000000000e+00
8.3000000000000007e+00 0.0000000000000000e+00 0.0000000000000000e+00
8.4000000000000004e+00 0.0000000000000000e+00 0.0000000000000000e+00
8.5000000000000000e+00 0.0000000000000000e+00 0.0000000000000000e+00
8.5999999999999996e+00 0.0000000000000000e+00 0.0000000000000000e+00
8.7000000000000011e+00 0.0000000000000000e+00 0.0000000000000000e+00
8.8000000000000007e+00 0.0000000000000000e+00 0.0000000000000000e+00
8.9000000000000004e+00 0.0000000000000000e+00 0.0000000000000000e+00
9.0000000000000000e+00 0.0000000000000000e+00 0.0000000000000000e+00
9.0999999999999996e+00 0.0000000000000000e+00 0.0000000000000000e+00
9.2000000000000011e+00 0.0000000000000000e+00 0.0000000000000000e+00
9.3000000000000007e+00 0.0000000000000000e+00 0.0000000000000000e+00
9.4000000000000004e+00 0.0000000000000000e+00 0.0000000000000000e+00
9.5000000000000000e+00 0.0000000000000000e+00 0.0000000000000000e+00
9.6000000000000014e+00 0.0000000000000000e+00 0.0000000000000000e+00
9.7000000000000011e+00 0.0000000000000000e+00 0.0000000000000000e+00
9.8000000000000007e+00 0.0000000000000000e+00 0.0000000000000000e+00
9.9000000000000004e+00 0.0000000000000000e+00 0.0000000000000000e+00
1.0000000000000000e+01 0.0000000000000000e+00 0.0000000000000000e+00

POINT_DATA 101

VECTORS velocity float
6.1007398032064781e+00 0.0000000000000000e+00 0.0000000000000000e+00
6.0953804015492414e+00 0.0000000000000000e+00 0.0000000000000000e+00
6.0910469448145301e+00 0.0000000000000000e+00 0.0000000000000000e+00
6.0873082156988483e+00 0.0000000000000000e+00 0.0000000000000000e+00
6.0839150194088942e+00 0.0000000000000000e+00 0.0000000000000000e+00
6.0807378614216754e+00 0.0000000000000000e+00 0.0000000000000000e+00
6.0777017293919995e+00 0.0000000000000000e+00 0.0000000000000000e+00
6.0747261252134592e+00 0.0000000000000000e+00 0.0000000000000000e+00
6.0717570589594709e+00 0.0000000000000000e+00 0.0000000000000000e+00
6.0688050372181728e+00 0.0000000000000000e+00 0.0000000000000000e+00
6.0658854274863288e+00 0.0000000000000000e+00 0.0000000000000000e+00
6.0629926551149849e+00 0.0000000000000000e+00 0.0000000000000000e+00
6.0601531912486459e+00 0.0000000000000000e+00 0.0000000000000000e+00
6.0574223459702541e+00 0.0000000000000000e+00 0.0000000000000000e+00
6.0548001675432248e+00 0.0000000000000000e+00 0.0000000000000000e+00
6.0522448488588569e+00 0.0000000000000000e+00 0.0000000000000000e+00
6.0496910436223841e+00 0.0000000000000000e+00 0.0000000000000000e+00
6.0470781793594561e+00 0.0000000000000000e+00 0.0000000000000000e+00
6.0443554477532029e+00 0.0000000000000000e+00 0.0000000000000000e+00
6.0415347058637092e+00 0.0000000000000000e+00 0.0000000000000000e+00
6.0386716597054129e+00 0.0000000000000000e+00 0.0000000000000000e+00
6.0357750465448534e+00 0.0000000000000000e+00 0.0000000000000000e+00
6.0329048040182132e+00 0.0000000000000000e+00 0.0000000000000000e+00
6.0301329295313586e+00 0.0000000000000000e+00 0.0000000000000000e+00
6.0275954386609616e+00 0.0000000000000000e+00 0.0000000000000000e+00
6.0254502419082288e+00 0.0000000000000000e+00 0.0000000000000000e+00
6.0236116162184823e+00 0.0000000000000000e+00 0.0000000000000000e+00
6.0219568004370405e+00 0.0000000000000000e+00 0.0000000000000000e+00
6.0204360406717727e+00 0.0000000000000000e+00 0.0000000000000000e+00
6.0190406111204595e+00 0.0000000000000000e+00 0.0000000000000000e+00
6.0177713027318598e+00 0.0000000000000000e+00 0.0000000000000000e+00
6.0166003578549141e+00 0.0000000000000000e+00 0.0000000000000000e+00
6.0155334259275417e+00 0.0000000000000000e+00 0.0000000000000000e+00
6.0145708520892827e+00 0.0000000000000000e+00 0.0000000000000000e+00
6.0136962218205694e+00 0.0000000000000000e+00 0.0000000000000000e+00
6.0129011717854963e+00 0.0000000000000000e+00 0.0000000000000000e+00
6.0121779689216748e+00 0.0000000000000000e+00 0.0000000000000000e+00
6.0115312039849957e+00 0.0000000000000000e+00 0.0000000000000000e+00
6.0109417490892705e+00 0.0000000000000000e+00 0.0000000000000000e+00
6.0104532276889966e+00 0.0000000000000000e+00 0.0000000000000000e+00
6.0100395855251794e+00 0.0000000000000000e+00 0.0000000000000000e+00
6.0096648826736825e+00 0.0000000000000000e+00 0.0000000000000000e+00
6.0093145864834954e+00 0.0000000000000000e+00 0.0000000000000000e+00
6.0089796258363224e+00 0.0000000000000000e+00 0.0000000000000000e+00
6.0086543649703197e+00 0.0000000000000000e+00 0.0000000000000000e+00
6.0083353185677861e+00 0.0000000000000000e+00 0.0000000000000000e+00
6.0080203279420532e+00 0.0000000000000000e+00 0.0000000000000000e+00
6.0077080475554707e+00 0.0000000000000000e+00 0.0000000000000000e+00
6.0073976336922668e+00 0.0000000000000000e+00 0.0000000000000000e+00
6.0070885520539941e+00 0.0000000000000000e+00 0.0000000000000000e+00
6.0067804576336794e+00 0.0000000000000000e+00 0.0000000000000000e+00
6.0064731152802713e+00 0.0000000000000000e+00 0.0000000000000000e+00
6.0061663577144833e+00 0.0000000000000000e+00 0.0000000000000000e+00
6.0058600617646061e+00 0.0000000000000000e+00 0.0000000000000000e+00
6.0055541295888553e+00 0.0000000000000000e+00 0.0000000000000000e+00
6.0052484737377307e+00 0.0000000000000000e+00 0.0000000000000000e+00
6.0049430189574897e+00 0.0000000000000000e+00 0.0000000000000000e+00
6.0046377028438620e+00 0.0000000000000000e+00 0.0000000000000000e+00
6.0043324620785992e+00 0.0000000000000000e+00 0.0000000000000000e+00
6.0040272388811262e+00 0.0000000000000000e+00 0.0000000000000000e+00
6.0037219780182225e+00 0.0000000000000000e+00 0.0000000000000000e+00
6.0034166115755108e+00 0.0000000000000000e+00 0.0000000000000000e+00
6.0031110869807964e+00 0.0000000000000000e+00 0.0000000000000000e+00
6.0028053643686032e+00 0.0000000000000000e+00 0.0000000000000000e+00
6.0024993904240107e+00 0.0000000000000000e+00 0.0000000000000000e+00
6.0021931130224981e+00 0.0000000000000000e+00 0.0000000000000000e+00
6.0018864855697354e+00 0.0000000000000000e+00 0.0000000000000000e+00
6.0015794621152478e+00 0.0000000000000000e+00 0.0000000000000000e+00
6.0012719966388808e+00 0.0000000000000000e+00 0.0000000000000000e+00
6.0009640451291926e+00 0.0000000000000000e+00 0.0000000000000000e+00
6.0006555641165491e+00 0.0000000000000000e+00 0.0000000000000000e+00
6.0003465149393023e+00 0.0000000000000000e+00 0.0000000000000000e+00
6.0000368540591502e+00 0.0000000000000000e+00 0.0000000000000000e+00
5.9997265424859316e+00 0.0000000000000000e+00 0.0000000000000000e+00
5.9994155463294909e+00 0.0000000000000000e+00 0.0000000000000000e+00
5.9991038264387342e+00 0.0000000000000000e+00 0.0000000000000000e+00
5.9987913494792915e+00 0.0000000000000000e+00 0.0000000000000000e+00
5.9984780816270078e+00 0.0000000000000000e+00 0.0000000000000000e+00
5.9981639931591610e+00 0.0000000000000000e+00 0.0000000000000000e+00
5.9978490458148217e+00 0.0000000000000000e+00 0.0000000000000000e+00
5.9975332144186311e+00 0.0000000000000000e+00 0.0000000000000000e+00
5.9972164762170257e+00 0.0000000000000000e+00 0.0000000000000000e+00
5.9968987975610446e+00 0.0000000000000000e+00 0.0000000000000000e+00
5.9965801507433225e+00 0.0000000000000000e+00 0.0000000000000000e+00
5.9962605072403150e+00 0.0000000000000000e+00 0.0000000000000000e+00
5.9959398538493307e+00 0.0000000000000000e+00 0.0000000000000000e+00
5.9956181765736654e+00 0.0000000000000000e+00 0.0000000000000000e+00
5.9952954388840514e+00 0.0000000000000000e+00 0.0000000000000000e+00
5.9949716134122850e+00 0.0000000000000000e+00 0.0000000000000000e+00
5.9946466904459488e+00 0.0000000000000000e+00 0.0000000000000000e+00
5.9943206615356806e+00 0.0000000000000000e+00 0.0000000000000000e+00
5.9939935198917098e+00 0.0000000000000000e+00 0.0000000000000000e+00
5.9936652231381542e+00 0.0000000000000000e+00 0.0000000000000000e+00
5.9933357617854011e+00 0.0000000000000000e+00 0.0000000000000000e+00
5.9930051786487475e+00 0.0000000000000000e+00 0.0000000000000000e+00
5.9926733390561484e+00 0.0000000000000000e+00 0.0000000000000000e+00
5.9923404785595222e+00 0.0000000000000000e+00 0.0000000000000000e+00
5.9920060829009758e+00 0.0000000000000000e+00 0.0000000000000000e+00
5.9916711643659752e+00 0.0000000000000000e+00 0.0000000000000000e+00
5.9913338894151442e+00 0.0000000000000000e+00 0.0000000000000000e+00
5.9909966144643141e+00 0.0000000000000000e+00 0.0000000000000000e+00


SCALARS pressure float
LOOKUP_TABLE default
-5.6811572051171169e+01
-5.6435346221258271e+01
-5.6059120391345374e+01
-5.5678169174914530e+01
-5.5290051381046332e+01
-5.4893516685256834e+01
-5.4488043612063990e+01
-5.4073489027554622e+01
-5.3649725791195806e+01
-5.3216693332081498e+01
-5.2774627452667183e+01
-5.2323870983064516e+01
-5.1864707589817563e+01
-5.1397541606376606e+01
-5.0922908538498149e+01
-5.0441106210327881e+01
-4.9952177199251516e+01
-4.9455990425553807e+01
-4.8952401670341509e+01
-4.8441348114282505e+01
-4.7923094700529909e+01
-4.7398196120764126e+01
-4.6867073098381567e+01
-4.6330332993911362e+01
-4.5788685075180489e+01
-4.5243175613469546e+01
-4.4695045693960800e+01
-4.4144451149721455e+01
-4.3591077712569998e+01
-4.3034799919595216e+01
-4.2475722531061407e+01
-4.1914053017027094e+01
-4.1349894778925837e+01
-4.0783456223045150e+01
-4.0214924763339361e+01
-3.9644408274852985e+01
-3.9072032544366543e+01
-3.8497934129583427e+01
-3.7922300163089709e+01
-3.7345248648121604e+01
-3.6767064828350307e+01
-3.6187656502442636e+01
-3.5606842868548952e+01
-3.5024524602879417e+01
-3.4440652990321539e+01
-3.3855210465157661e+01
-3.3268198534201460e+01
-3.2679630274779306e+01
-3.2089525726164212e+01
-3.1497909106793401e+01
-3.0904807130185990e+01
-3.0310247979037825e+01
-2.9714260656052435e+01
-2.9116874613235453e+01
-2.8518119544850553e+01
-2.7918025247425671e+01
-2.7316621514040456e+01
-2.6713938113724719e+01
-2.6110004794156723e+01
-2.5504851222523744e+01
-2.4898506997436002e+01
-2.4291001641038594e+01
-2.3682364535452216e+01
-2.3072625030749300e+01
-2.2461812460447927e+01
-2.1849956031605899e+01
-2.1237084863380652e+01
-2.0623228019534608e+01
-2.0008414494368214e+01
-1.9392673208286649e+01
-1.8776033019953374e+01
-1.8158522722998825e+01
-1.7540171066255816e+01
-1.6921006717043600e+01
-1.6301058295188916e+01
-1.5680354387921888e+01
-1.5058923507288160e+01
-1.4436794131523568e+01
-1.3813994688564755e+01
-1.3190553575379601e+01
-1.2566499107155590e+01
-1.1941859601551498e+01
-1.1316663358330937e+01
-1.0690938592344912e+01
-1.0064713494403707e+01
-9.4380162175996816e+00
-8.8108749536120605e+00
-8.1833178787594658e+00
-7.5553730375779589e+00
-6.9270684574609929e+00
-6.2984322251835323e+00
-5.6694924391555412e+00
-5.0402771945902094e+00
-4.4108144054368976e+00
-3.7811320966161128e+00
-3.1512584870677554e+00
-2.5212212079130194e+00
-1.8910489412590508e+00
-1.2607685434897116e+00
-6.3040967236686118e-01
0.0000000000000000e+00


SCALARS diameter float
LOOKUP_TABLE default
9.9035868520545001e-01
9.9052395697918583e-01
9.9068881732634417e-01
9.9085078795914716e-01
9.9101752142294453e-01
9.9118704458186169e-01
9.9136044504629317e-01
9.9154568606148019e-01
9.9175454577744093e-01
9.9197252692816829e-01
9.9219219518410395e-01
9.9241372430599573e-01
9.9263629474135362e-01
9.9284176914519928e-01
9.9302971155459163e-01
9.9321353184974015e-01
9.9340648033807089e-01
9.9362301343500026e-01
9.9386668434684278e-01
9.9414003175784105e-01
9.9441859790273568e-01
9.9470387275855554e-01
9.9498974774867566e-01
9.9525064561793575e-01
9.9547328565707938e-01
9.9561001272799676e-01
9.9569597619759942e-01
9.9578036692292693e-01
9.9586470325555321e-01
9.9594818499699056e-01
9.9602211943209962e-01
9.9609615772872406e-01
9.9616922569017918e-01
9.9623616091498202e-01
9.9630141542801420e-01
9.9636679930952832e-01
9.9643231727264137e-01
9.9649797122701389e-01
9.9656376244138478e-01
9.9662891115853203e-01
9.9668162860411902e-01
9.9673445174495845e-01
9.9678738586417714e-01
9.9684042905452441e-01
9.9689358053482058e-01
9.9694683825747032e-01
9.9700019975096399e-01
9.9705366547688001e-01
9.9710723469352769e-01
9.9716090602522955e-01
9.9721467668245845e-01
9.9726854516936370e-01
9.9732251080225975e-01
9.9737657146022585e-01
9.9743072559268520e-01
9.9748497243405676e-01
9.9753931213434921e-01
9.9759374081554353e-01
9.9764825740399332e-01
9.9770286092124938e-01
9.9775754866908184e-01
9.9781232204044812e-01
9.9786718193932367e-01
9.9792212089424603e-01
9.9797713902183083e-01
9.9803223683129805e-01
9.9808741196920170e-01
9.9814266316047406e-01
9.9819798902549073e-01
9.9825338844427036e-01
9.9830886005645669e-01
9.9836440243568125e-01
9.9842001375707146e-01
9.9847569497315891e-01
9.9853144137000560e-01
9.9858725410374416e-01
9.9864313071852484e-01
9.9869907012832260e-01
9.9875507063997970e-01
9.9881113144483991e-01
9.9886725334797477e-01
9.9892342882431195e-01
9.9897966254293769e-01
9.9903595076886786e-01
9.9909229535299948e-01
9.9914869071093571e-01
9.9920513424024704e-01
9.9926162734877788e-01
9.9931817470975537e-01
9.9937476775951417e-01
9.9943140602384362e-01
9.9948808367429831e-01
9.9954480791480382e-01
9.9960157943552563e-01
9.9965838134678275e-01
9.9971522837302007e-01
9.9977211204702221e-01
9.9982903154847935e-01
9.9988598681585938e-01
9.9994297700566415e-01
1.0000000067149104e+00


SCALARS iters float
LOOKUP_TABLE default
5.0000000000000000e+00
5.0000000000000000e+00
5.0000000000000000e+00
5.0000000000000000e+00
5.0000000000000000e+00
5.0000000000000000e+00
5.0000000000000000e+00
5.0000000000000000e+00
5.0000000000000000e+00
5.0000000000000000e+00
5.0000000000000000e+00
5.0000000000000000e+00
5.0000000000000000e+00
5.0000000000000000e+00
5.0000000000000000e+00
5.0000000000000000e+00
5.0000000000000000e+00
5.0000000000000000e+00
5.0000000000000000e+00
5.0000000000000000e+00
5.0000000000000000e+00
5.0000000000000000e+00
5.0000000000000000e+00
5.0000000000000000e+00
5.0000000000000000e+00
5.0000000000000000e+00
5.0000000000000000e+00
5.0000000000000000e+00
5.0000000000000000e+00
5.0000000000000000e+00
5.0000000000000000e+00
5.0000000000000000e+00
5.0000000000000000e+00
5.0000000000000000e+00
5.0000000000000000e+00
5.0000000000000000e+00
5.0000000000000000e+00
5.0000000000000000e+00
5.0000000000000000e+00
5.0000000000000000e+00
5.0000000000000000e+00
5.0000000000000000e+00
5.0000000000000000e+00
5.0000000000000000e+00
5.0000000000000000e+00
5.0000000000000000e+00
5.0000000000000000e+00
5.0000000000000000e+00
5.0000000000000000e+00
5.0000000000000000e+00
5.0000000000000000e+00
5.0000000000000000e+00
5.0000000000000000e+00
5.0000000000000000e+00
5.0000000000000000e+00
5.0000000000000000e+00
5.0000000000000000e+00
5.0000000000000000e+00
5.0000000000000000e+00
5.0000000000000000e+00
5.0000000000000000e+00
5.0000000000000000e+00
5.0000000000000000e+00
5.0000000000000000e+00
5.0000000000000000e+00
5.0000000000000000e+00
5.0000000000000000e+00
5.0000000000000000e+00
5.0000000000000000e+00
5.0000000000000000e+00
5.0000000000000000e+00
5.0000000000000000e+00
5.0000000000000000e+00
5.0000000000000000e+00
5.0000000000000000e+00
5.0000000000000000e+00
5.0000000000000000e+00
5.0000000000000000e+00
5.0000000000000000e+00
5.0000000000000000e+00
5.0000000000000000e+00
5.0000000000000000e+00
5.0000000000000000e+00
5.0000000000000000e+00
5.0000000000000000e+00
5.0000000000000000e+00
5.0000000000000000e+00
5.0000000000000000e+00
5.0000000000000000e+00
5.0000000000000000e+00
5.0000000000000000e+00
5.0000000000000000e+00
5.0000000000000000e+00
5.0000000000000000e+00
5.0000000000000000e+00
5.0000000000000000e+00
5.0000000000000000e+00
5.0000000000000000e+00
5.0000000000000000e+00
5.0000000000000000e+00
5.0000000000000000e+00


