# vtk DataFile Version 2.0

ASCII

DATASET UNSTRUCTURED_GRID

POINTS 101 float

0.0000000000000000e+00 0.0000000000000000e+00 0.0000000000000000e+00
1.0000000000000001e-01 0.0000000000000000e+00 0.0000000000000000e+00
2.0000000000000001e-01 0.0000000000000000e+00 0.0000000000000000e+00
3.0000000000000004e-01 0.0000000000000000e+00 0.0000000000000000e+00
4.0000000000000002e-01 0.0000000000000000e+00 0.0000000000000000e+00
5.0000000000000000e-01 0.0000000000000000e+00 0.0000000000000000e+00
6.0000000000000009e-01 0.0000000000000000e+00 0.0000000000000000e+00
7.0000000000000007e-01 0.0000000000000000e+00 0.0000000000000000e+00
8.0000000000000004e-01 0.0000000000000000e+00 0.0000000000000000e+00
9.0000000000000002e-01 0.0000000000000000e+00 0.0000000000000000e+00
1.0000000000000000e+00 0.0000000000000000e+00 0.0000000000000000e+00
1.1000000000000001e+00 0.0000000000000000e+00 0.0000000000000000e+00
1.2000000000000002e+00 0.0000000000000000e+00 0.0000000000000000e+00
1.3000000000000000e+00 0.0000000000000000e+00 0.0000000000000000e+00
1.4000000000000001e+00 0.0000000000000000e+00 0.0000000000000000e+00
1.5000000000000000e+00 0.0000000000000000e+00 0.0000000000000000e+00
1.6000000000000001e+00 0.0000000000000000e+00 0.0000000000000000e+00
1.7000000000000002e+00 0.0000000000000000e+00 0.0000000000000000e+00
1.8000000000000000e+00 0.0000000000000000e+00 0.0000000000000000e+00
1.9000000000000001e+00 0.0000000000000000e+00 0.0000000000000000e+00
2.0000000000000000e+00 0.0000000000000000e+00 0.0000000000000000e+00
2.1000000000000001e+00 0.0000000000000000e+00 0.0000000000000000e+00
2.2000000000000002e+00 0.0000000000000000e+00 0.0000000000000000e+00
2.3000000000000003e+00 0.0000000000000000e+00 0.0000000000000000e+00
2.4000000000000004e+00 0.0000000000000000e+00 0.0000000000000000e+00
2.5000000000000000e+00 0.0000000000000000e+00 0.0000000000000000e+00
2.6000000000000001e+00 0.0000000000000000e+00 0.0000000000000000e+00
2.7000000000000002e+00 0.0000000000000000e+00 0.0000000000000000e+00
2.8000000000000003e+00 0.0000000000000000e+00 0.0000000000000000e+00
2.9000000000000004e+00 0.0000000000000000e+00 0.0000000000000000e+00
3.0000000000000000e+00 0.0000000000000000e+00 0.0000000000000000e+00
3.1000000000000001e+00 0.0000000000000000e+00 0.0000000000000000e+00
3.2000000000000002e+00 0.0000000000000000e+00 0.0000000000000000e+00
3.3000000000000003e+00 0.0000000000000000e+00 0.0000000000000000e+00
3.4000000000000004e+00 0.0000000000000000e+00 0.0000000000000000e+00
3.5000000000000000e+00 0.0000000000000000e+00 0.0000000000000000e+00
3.6000000000000001e+00 0.0000000000000000e+00 0.0000000000000000e+00
3.7000000000000002e+00 0.0000000000000000e+00 0.0000000000000000e+00
3.8000000000000003e+00 0.0000000000000000e+00 0.0000000000000000e+00
3.9000000000000004e+00 0.0000000000000000e+00 0.0000000000000000e+00
4.0000000000000000e+00 0.0000000000000000e+00 0.0000000000000000e+00
4.1000000000000005e+00 0.0000000000000000e+00 0.0000000000000000e+00
4.2000000000000002e+00 0.0000000000000000e+00 0.0000000000000000e+00
4.2999999999999998e+00 0.0000000000000000e+00 0.0000000000000000e+00
4.4000000000000004e+00 0.0000000000000000e+00 0.0000000000000000e+00
4.5000000000000000e+00 0.0000000000000000e+00 0.0000000000000000e+00
4.6000000000000005e+00 0.0000000000000000e+00 0.0000000000000000e+00
4.7000000000000002e+00 0.0000000000000000e+00 0.0000000000000000e+00
4.8000000000000007e+00 0.0000000000000000e+00 0.0000000000000000e+00
4.9000000000000004e+00 0.0000000000000000e+00 0.0000000000000000e+00
5.0000000000000000e+00 0.0000000000000000e+00 0.0000000000000000e+00
5.1000000000000005e+00 0.0000000000000000e+00 0.0000000000000000e+00
5.2000000000000002e+00 0.0000000000000000e+00 0.0000000000000000e+00
5.3000000000000007e+00 0.0000000000000000e+00 0.0000000000000000e+00
5.4000000000000004e+00 0.0000000000000000e+00 0.0000000000000000e+00
5.5000000000000000e+00 0.0000000000000000e+00 0.0000000000000000e+00
5.6000000000000005e+00 0.0000000000000000e+00 0.0000000000000000e+00
5.7000000000000002e+00 0.0000000000000000e+00 0.0000000000000000e+00
5.8000000000000007e+00 0.0000000000000000e+00 0.0000000000000000e+00
5.9000000000000004e+00 0.0000000000000000e+00 0.0000000000000000e+00
6.0000000000000000e+00 0.0000000000000000e+00 0.0000000000000000e+00
6.1000000000000005e+00 0.0000000000000000e+00 0.0000000000000000e+00
6.2000000000000002e+00 0.0000000000000000e+00 0.0000000000000000e+00
6.3000000000000007e+00 0.0000000000000000e+00 0.0000000000000000e+00
6.4000000000000004e+00 0.0000000000000000e+00 0.0000000000000000e+00
6.5000000000000000e+00 0.0000000000000000e+00 0.0000000000000000e+00
6.6000000000000005e+00 0.0000000000000000e+00 0.0000000000000000e+00
6.7000000000000002e+00 0.0000000000000000e+00 0.0000000000000000e+00
6.8000000000000007e+00 0.0000000000000000e+00 0.0000000000000000e+00
6.9000000000000004e+00 0.0000000000000000e+00 0.0000000000000000e+00
7.0000000000000000e+00 0.0000000000000000e+00 0.0000000000000000e+00
7.1000000000000005e+00 0.0000000000000000e+00 0.0000000000000000e+00
7.2000000000000002e+00 0.0000000000000000e+00 0.0000000000000000e+00
7.3000000000000007e+00 0.0000000000000000e+00 0.0000000000000000e+00
7.4000000000000004e+00 0.0000000000000000e+00 0.0000000000000000e+00
7.5000000000000000e+00 0.0000000000000000e+00 0.0000000000000000e+00
7.6000000000000005e+00 0.0000000000000000e+00 0.0000000000000000e+00
7.7000000000000002e+00 0.0000000000000000e+00 0.0000000000000000e+00
7.8000000000000007e+00 0.0000000000000000e+00 0.0000000000000000e+00
7.9000000000000004e+00 0.0000000000000000e+00 0.0000000000000000e+00
8.0000000000000000e+00 0.0000000000000000e+00 0.0000000000000000e+00
8.0999999999999996e+00 0.0000000000000000e+00 0.0000000000000000e+00
8.2000000000000011e+00 0.0000000000000000e+00 0.0000000000000000e+00
8.3000000000000007e+00 0.0000000000000000e+00 0.0000000000000000e+00
8.4000000000000004e+00 0.0000000000000000e+00 0.0000000000000000e+00
8.5000000000000000e+00 0.0000000000000000e+00 0.0000000000000000e+00
8.5999999999999996e+00 0.0000000000000000e+00 0.0000000000000000e+00
8.7000000000000011e+00 0.0000000000000000e+00 0.0000000000000000e+00
8.8000000000000007e+00 0.0000000000000000e+00 0.0000000000000000e+00
8.9000000000000004e+00 0.0000000000000000e+00 0.0000000000000000e+00
9.0000000000000000e+00 0.0000000000000000e+00 0.0000000000000000e+00
9.0999999999999996e+00 0.0000000000000000e+00 0.0000000000000000e+00
9.2000000000000011e+00 0.0000000000000000e+00 0.0000000000000000e+00
9.3000000000000007e+00 0.0000000000000000e+00 0.0000000000000000e+00
9.4000000000000004e+00 0.0000000000000000e+00 0.0000000000000000e+00
9.5000000000000000e+00 0.0000000000000000e+00 0.0000000000000000e+00
9.6000000000000014e+00 0.0000000000000000e+00 0.0000000000000000e+00
9.7000000000000011e+00 0.0000000000000000e+00 0.0000000000000000e+00
9.8000000000000007e+00 0.0000000000000000e+00 0.0000000000000000e+00
9.9000000000000004e+00 0.0000000000000000e+00 0.0000000000000000e+00
1.0000000000000000e+01 0.0000000000000000e+00 0.0000000000000000e+00

POINT_DATA 101

VECTORS velocity float
6.5670806395682293e+00 0.0000000000000000e+00 0.0000000000000000e+00
6.5666996326450597e+00 0.0000000000000000e+00 0.0000000000000000e+00
6.5663189042984573e+00 0.0000000000000000e+00 0.0000000000000000e+00
6.5659373598948152e+00 0.0000000000000000e+00 0.0000000000000000e+00
6.5655573156924918e+00 0.0000000000000000e+00 0.0000000000000000e+00
6.5651804228023307e+00 0.0000000000000000e+00 0.0000000000000000e+00
6.5648094492268534e+00 0.0000000000000000e+00 0.0000000000000000e+00
6.5644472246755923e+00 0.0000000000000000e+00 0.0000000000000000e+00
6.5640887922055189e+00 0.0000000000000000e+00 0.0000000000000000e+00
6.5637292882402267e+00 0.0000000000000000e+00 0.0000000000000000e+00
6.5633710933117912e+00 0.0000000000000000e+00 0.0000000000000000e+00
6.5630157380770768e+00 0.0000000000000000e+00 0.0000000000000000e+00
6.5626637156089034e+00 0.0000000000000000e+00 0.0000000000000000e+00
6.5623171387831700e+00 0.0000000000000000e+00 0.0000000000000000e+00
6.5619770074623878e+00 0.0000000000000000e+00 0.0000000000000000e+00
6.5616431488965858e+00 0.0000000000000000e+00 0.0000000000000000e+00
6.5613131944819143e+00 0.0000000000000000e+00 0.0000000000000000e+00
6.5609844856516890e+00 0.0000000000000000e+00 0.0000000000000000e+00
6.5606577780263660e+00 0.0000000000000000e+00 0.0000000000000000e+00
6.5603335968012617e+00 0.0000000000000000e+00 0.0000000000000000e+00
6.5600126855577985e+00 0.0000000000000000e+00 0.0000000000000000e+00
6.5596968957678286e+00 0.0000000000000000e+00 0.0000000000000000e+00
6.5593875958423835e+00 0.0000000000000000e+00 0.0000000000000000e+00
6.5590851997888748e+00 0.0000000000000000e+00 0.0000000000000000e+00
6.5587849712918640e+00 0.0000000000000000e+00 0.0000000000000000e+00
6.5584859687160693e+00 0.0000000000000000e+00 0.0000000000000000e+00
6.5581920297171976e+00 0.0000000000000000e+00 0.0000000000000000e+00
6.5579022609177580e+00 0.0000000000000000e+00 0.0000000000000000e+00
6.5576166987728906e+00 0.0000000000000000e+00 0.0000000000000000e+00
6.5573346645649684e+00 0.0000000000000000e+00 0.0000000000000000e+00
6.5570557821690798e+00 0.0000000000000000e+00 0.0000000000000000e+00
6.5567805539129136e+00 0.0000000000000000e+00 0.0000000000000000e+00
6.5565095455792735e+00 0.0000000000000000e+00 0.0000000000000000e+00
6.5562433263097359e+00 0.0000000000000000e+00 0.0000000000000000e+00
6.5559816156365303e+00 0.0000000000000000e+00 0.0000000000000000e+00
6.5557241530736947e+00 0.0000000000000000e+00 0.0000000000000000e+00
6.5554708854975718e+00 0.0000000000000000e+00 0.0000000000000000e+00
6.5552216976516977e+00 0.0000000000000000e+00 0.0000000000000000e+00
6.5549767408581801e+00 0.0000000000000000e+00 0.0000000000000000e+00
6.5547354077664668e+00 0.0000000000000000e+00 0.0000000000000000e+00
6.5544972988206824e+00 0.0000000000000000e+00 0.0000000000000000e+00
6.5542629721077166e+00 0.0000000000000000e+00 0.0000000000000000e+00
6.5540325446671384e+00 0.0000000000000000e+00 0.0000000000000000e+00
6.5538060884817169e+00 0.0000000000000000e+00 0.0000000000000000e+00
6.5535836485868968e+00 0.0000000000000000e+00 0.0000000000000000e+00
6.5533652533402886e+00 0.0000000000000000e+00 0.0000000000000000e+00
6.5531509208967123e+00 0.0000000000000000e+00 0.0000000000000000e+00
6.5529406630179352e+00 0.0000000000000000e+00 0.0000000000000000e+00
6.5527344886197882e+00 0.0000000000000000e+00 0.0000000000000000e+00
6.5525324039432320e+00 0.0000000000000000e+00 0.0000000000000000e+00
6.5523344129175296e+00 0.0000000000000000e+00 0.0000000000000000e+00
6.5521405195513660e+00 0.0000000000000000e+00 0.0000000000000000e+00
6.5519507268993227e+00 0.0000000000000000e+00 0.0000000000000000e+00
6.5517650373250653e+00 0.0000000000000000e+00 0.0000000000000000e+00
6.5515834535603554e+00 0.0000000000000000e+00 0.0000000000000000e+00
6.5514059784597665e+00 0.0000000000000000e+00 0.0000000000000000e+00
6.5512326134666257e+00 0.0000000000000000e+00 0.0000000000000000e+00
6.5510633604503958e+00 0.0000000000000000e+00 0.0000000000000000e+00
6.5508982223800629e+00 0.0000000000000000e+00 0.0000000000000000e+00
6.5507372011953731e+00 0.0000000000000000e+00 0.0000000000000000e+00
6.5505802985920631e+00 0.0000000000000000e+00 0.0000000000000000e+00
6.5504275165207906e+00 0.0000000000000000e+00 0.0000000000000000e+00
6.5502788568599790e+00 0.0000000000000000e+00 0.0000000000000000e+00
6.5501343210072172e+00 0.0000000000000000e+00 0.0000000000000000e+00
6.5499939106007030e+00 0.0000000000000000e+00 0.0000000000000000e+00
6.5498576273128277e+00 0.0000000000000000e+00 0.0000000000000000e+00
6.5497254725891452e+00 0.0000000000000000e+00 0.0000000000000000e+00
6.5495974480517969e+00 0.0000000000000000e+00 0.0000000000000000e+00
6.5494735552068173e+00 0.0000000000000000e+00 0.0000000000000000e+00
6.5493537953353140e+00 0.0000000000000000e+00 0.0000000000000000e+00
6.5492381697333339e+00 0.0000000000000000e+00 0.0000000000000000e+00
6.5491266796453642e+00 0.0000000000000000e+00 0.0000000000000000e+00
6.5490193262653129e+00 0.0000000000000000e+00 0.0000000000000000e+00
6.5489161107596097e+00 0.0000000000000000e+00 0.0000000000000000e+00
6.5488170341987235e+00 0.0000000000000000e+00 0.0000000000000000e+00
6.5487220975050526e+00 0.0000000000000000e+00 0.0000000000000000e+00
6.5486313018386575e+00 0.0000000000000000e+00 0.0000000000000000e+00
6.5485446478387974e+00 0.0000000000000000e+00 0.0000000000000000e+00
6.5484621364491709e+00 0.0000000000000000e+00 0.0000000000000000e+00
6.5483837690458655e+00 0.0000000000000000e+00 0.0000000000000000e+00
6.5483095458691611e+00 0.0000000000000000e+00 0.0000000000000000e+00
6.5482394674296476e+00 0.0000000000000000e+00 0.0000000000000000e+00
6.5481735342556959e+00 0.0000000000000000e+00 0.0000000000000000e+00
6.5481117479500650e+00 0.0000000000000000e+00 0.0000000000000000e+00
6.5480541086491293e+00 0.0000000000000000e+00 0.0000000000000000e+00
6.5480006151033914e+00 0.0000000000000000e+00 0.0000000000000000e+00
6.5479512677210456e+00 0.0000000000000000e+00 0.0000000000000000e+00
6.5479060679710042e+00 0.0000000000000000e+00 0.0000000000000000e+00
6.5478650168613433e+00 0.0000000000000000e+00 0.0000000000000000e+00
6.5478281141250587e+00 0.0000000000000000e+00 0.0000000000000000e+00
6.5477953600671670e+00 0.0000000000000000e+00 0.0000000000000000e+00
6.5477667544675473e+00 0.0000000000000000e+00 0.0000000000000000e+00
6.5477422953680504e+00 0.0000000000000000e+00 0.0000000000000000e+00
6.5477219905507962e+00 0.0000000000000000e+00 0.0000000000000000e+00
6.5477058208694876e+00 0.0000000000000000e+00 0.0000000000000000e+00
6.5476938323233558e+00 0.0000000000000000e+00 0.0000000000000000e+00
6.5476859037070394e+00 0.0000000000000000e+00 0.0000000000000000e+00
6.5476823523797023e+00 0.0000000000000000e+00 0.0000000000000000e+00
6.5476823446267236e+00 0.0000000000000000e+00 0.0000000000000000e+00
6.5476880649059552e+00 0.0000000000000000e+00 0.0000000000000000e+00
6.5476937851851877e+00 0.0000000000000000e+00 0.0000000000000000e+00


SCALARS pressure float
LOOKUP_TABLE default
2.9123104469379362e+00
2.8851440383803668e+00
2.8579776298227970e+00
2.8307971206966713e+00
2.8036060151629587e+00
2.7763964522075164e+00
2.7491594894355464e+00
2.7218805018378069e+00
2.6945421976791213e+00
2.6671616985792412e+00
2.6397661545543576e+00
2.6123526966337245e+00
2.5849132173686380e+00
2.5574428021866336e+00
2.5299302061774833e+00
2.5023673510583797e+00
2.4747523476290758e+00
2.4470953681559999e+00
2.4194117060600098e+00
2.3917024899506889e+00
2.3639655117503886e+00
2.3361964943999260e+00
2.3083854179098671e+00
2.2805226052241792e+00
2.2526028280594570e+00
2.2246463513162200e+00
2.1966636222754325e+00
2.1686399988688039e+00
2.1405749141614376e+00
2.1124678560576795e+00
2.0843216102109521e+00
2.0561386092586895e+00
2.0279171668737170e+00
1.9996540659739865e+00
1.9713455975265035e+00
1.9429917726068766e+00
1.9145936471324041e+00
1.8861516479981777e+00
1.8576662959088457e+00
1.8291369229270427e+00
1.8005659656348945e+00
1.7719558408312837e+00
1.7433045938485885e+00
1.7146109528366220e+00
1.6858740588605972e+00
1.6570933015511231e+00
1.6282682226653791e+00
1.5993984574695765e+00
1.5704836998961123e+00
1.5415236758479736e+00
1.5125181344148610e+00
1.4834668436647687e+00
1.4543695783804149e+00
1.4252261211946597e+00
1.3960362617638888e+00
1.3667997916084491e+00
1.3375165036007821e+00
1.3081861988478227e+00
1.2788086804071956e+00
1.2493837482910035e+00
1.2199112076339049e+00
1.1903908675993216e+00
1.1608225387048690e+00
1.1312060334817000e+00
1.1015411685347622e+00
1.0718277618477789e+00
1.0420656328912785e+00
1.0122546038238645e+00
9.8239449799771217e-01
9.5248514082473856e-01
9.2252636051760672e-01
8.9251798718710773e-01
8.6245985285152937e-01
8.3235179141013849e-01
8.0219363854314674e-01
7.7198523196627011e-01
7.4172641170748888e-01
7.1141701845544580e-01
6.8105689641726119e-01
6.5064589049104293e-01
6.2018384480410704e-01
5.8967060927400894e-01
5.5910603523489522e-01
5.2848997528322961e-01
4.9782227849357119e-01
4.6710280031275458e-01
4.3633140509943491e-01
4.0550795313745563e-01
3.7463229937059978e-01
3.4370430027813853e-01
3.1272381938967192e-01
2.8169072057477273e-01
2.5060487046567381e-01
2.1946614538916043e-01
1.8827438056668055e-01
1.5702952332372461e-01
1.2573125585179795e-01
9.4379949215823489e-02
6.2974169933611782e-02
3.1517218509702911e-02
0.0000000000000000e+00


SCALARS diameter float
LOOKUP_TABLE default
1.0002646018416386e+00
1.0002616464538456e+00
1.0002583862076051e+00
1.0002562216122308e+00
1.0002542328656501e+00
1.0002521873231429e+00
1.0002496006069994e+00
1.0002458147774220e+00
1.0002417018139598e+00
1.0002394288116099e+00
1.0002376566862958e+00
1.0002358336736887e+00
1.0002339788143844e+00
1.0002318179098182e+00
1.0002288664412460e+00
1.0002256124750479e+00
1.0002222279358455e+00
1.0002198377681095e+00
1.0002178012024567e+00
1.0002159433146904e+00
1.0002141062539780e+00
1.0002119699710350e+00
1.0002091242081619e+00
1.0002057454333246e+00
1.0002025425429406e+00
1.0002007617376536e+00
1.0001982294443257e+00
1.0001956143360944e+00
1.0001929938886061e+00
1.0001903920534569e+00
1.0001880904762273e+00
1.0001857716962546e+00
1.0001834122822852e+00
1.0001807969666934e+00
1.0001780779335974e+00
1.0001753502399047e+00
1.0001726132481892e+00
1.0001698669971977e+00
1.0001671112057662e+00
1.0001643650752661e+00
1.0001618996197472e+00
1.0001594211498253e+00
1.0001569308617670e+00
1.0001544296041112e+00
1.0001519177575000e+00
1.0001493956479928e+00
1.0001468635423705e+00
1.0001443217263704e+00
1.0001417703366771e+00
1.0001392093124928e+00
1.0001366391693163e+00
1.0001340599720434e+00
1.0001314718295489e+00
1.0001288750882331e+00
1.0001262698391036e+00
1.0001236561158939e+00
1.0001210341723081e+00
1.0001184044810139e+00
1.0001157667661775e+00
1.0001131212512573e+00
1.0001104681954307e+00
1.0001078077514141e+00
1.0001051400171301e+00
1.0001024652460733e+00
1.0000997836445791e+00
1.0000970952897472e+00
1.0000944004050101e+00
1.0000916991102033e+00
1.0000889915373750e+00
1.0000862778781194e+00
1.0000835583112364e+00
1.0000808329770725e+00
1.0000781020552232e+00
1.0000753656794341e+00
1.0000726240274787e+00
1.0000698772595376e+00
1.0000671255385392e+00
1.0000643689751081e+00
1.0000616078707878e+00
1.0000588420916328e+00
1.0000560719416622e+00
1.0000532977173811e+00
1.0000505194605325e+00
1.0000477372793455e+00
1.0000449510337708e+00
1.0000421616822743e+00
1.0000393691776046e+00
1.0000365734560106e+00
1.0000337743243874e+00
1.0000309722193661e+00
1.0000281672982847e+00
1.0000253596625523e+00
1.0000225499473683e+00
1.0000197373184656e+00
1.0000169227649447e+00
1.0000141062927563e+00
1.0000112880022141e+00
1.0000084680687162e+00
1.0000056465921370e+00
1.0000028238779983e+00
1.0000000000395968e+00


SCALARS iters float
LOOKUP_TABLE default
4.0000000000000000e+00
4.0000000000000000e+00
4.0000000000000000e+00
4.0000000000000000e+00
4.0000000000000000e+00
4.0000000000000000e+00
4.0000000000000000e+00
4.0000000000000000e+00
4.0000000000000000e+00
4.0000000000000000e+00
4.0000000000000000e+00
4.0000000000000000e+00
4.0000000000000000e+00
4.0000000000000000e+00
4.0000000000000000e+00
4.0000000000000000e+00
4.0000000000000000e+00
4.0000000000000000e+00
4.0000000000000000e+00
4.0000000000000000e+00
4.0000000000000000e+00
4.0000000000000000e+00
4.0000000000000000e+00
4.0000000000000000e+00
4.0000000000000000e+00
4.0000000000000000e+00
4.0000000000000000e+00
4.0000000000000000e+00
4.0000000000000000e+00
4.0000000000000000e+00
4.0000000000000000e+00
4.0000000000000000e+00
4.0000000000000000e+00
4.0000000000000000e+00
4.0000000000000000e+00
4.0000000000000000e+00
4.0000000000000000e+00
4.0000000000000000e+00
4.0000000000000000e+00
4.0000000000000000e+00
4.0000000000000000e+00
4.0000000000000000e+00
4.0000000000000000e+00
4.0000000000000000e+00
4.0000000000000000e+00
4.0000000000000000e+00
4.0000000000000000e+00
4.0000000000000000e+00
4.0000000000000000e+00
4.0000000000000000e+00
4.0000000000000000e+00
4.0000000000000000e+00
4.0000000000000000e+00
4.0000000000000000e+00
4.0000000000000000e+00
4.0000000000000000e+00
4.0000000000000000e+00
4.0000000000000000e+00
4.0000000000000000e+00
4.0000000000000000e+00
4.0000000000000000e+00
4.0000000000000000e+00
4.0000000000000000e+00
4.0000000000000000e+00
4.0000000000000000e+00
4.0000000000000000e+00
4.0000000000000000e+00
4.0000000000000000e+00
4.0000000000000000e+00
4.0000000000000000e+00
4.0000000000000000e+00
4.0000000000000000e+00
4.0000000000000000e+00
4.0000000000000000e+00
4.0000000000000000e+00
4.0000000000000000e+00
4.0000000000000000e+00
4.0000000000000000e+00
4.0000000000000000e+00
4.0000000000000000e+00
4.0000000000000000e+00
4.0000000000000000e+00
4.0000000000000000e+00
4.0000000000000000e+00
4.0000000000000000e+00
4.0000000000000000e+00
4.0000000000000000e+00
4.0000000000000000e+00
4.0000000000000000e+00
4.0000000000000000e+00
4.0000000000000000e+00
4.0000000000000000e+00
4.0000000000000000e+00
4.0000000000000000e+00
4.0000000000000000e+00
4.0000000000000000e+00
4.0000000000000000e+00
4.0000000000000000e+00
4.0000000000000000e+00
4.0000000000000000e+00
4.0000000000000000e+00


