# vtk DataFile Version 2.0

ASCII

DATASET UNSTRUCTURED_GRID

POINTS 101 float

0.0000000000000000e+00 0.0000000000000000e+00 0.0000000000000000e+00
1.0000000000000001e-01 0.0000000000000000e+00 0.0000000000000000e+00
2.0000000000000001e-01 0.0000000000000000e+00 0.0000000000000000e+00
3.0000000000000004e-01 0.0000000000000000e+00 0.0000000000000000e+00
4.0000000000000002e-01 0.0000000000000000e+00 0.0000000000000000e+00
5.0000000000000000e-01 0.0000000000000000e+00 0.0000000000000000e+00
6.0000000000000009e-01 0.0000000000000000e+00 0.0000000000000000e+00
7.0000000000000007e-01 0.0000000000000000e+00 0.0000000000000000e+00
8.0000000000000004e-01 0.0000000000000000e+00 0.0000000000000000e+00
9.0000000000000002e-01 0.0000000000000000e+00 0.0000000000000000e+00
1.0000000000000000e+00 0.0000000000000000e+00 0.0000000000000000e+00
1.1000000000000001e+00 0.0000000000000000e+00 0.0000000000000000e+00
1.2000000000000002e+00 0.0000000000000000e+00 0.0000000000000000e+00
1.3000000000000000e+00 0.0000000000000000e+00 0.0000000000000000e+00
1.4000000000000001e+00 0.0000000000000000e+00 0.0000000000000000e+00
1.5000000000000000e+00 0.0000000000000000e+00 0.0000000000000000e+00
1.6000000000000001e+00 0.0000000000000000e+00 0.0000000000000000e+00
1.7000000000000002e+00 0.0000000000000000e+00 0.0000000000000000e+00
1.8000000000000000e+00 0.0000000000000000e+00 0.0000000000000000e+00
1.9000000000000001e+00 0.0000000000000000e+00 0.0000000000000000e+00
2.0000000000000000e+00 0.0000000000000000e+00 0.0000000000000000e+00
2.1000000000000001e+00 0.0000000000000000e+00 0.0000000000000000e+00
2.2000000000000002e+00 0.0000000000000000e+00 0.0000000000000000e+00
2.3000000000000003e+00 0.0000000000000000e+00 0.0000000000000000e+00
2.4000000000000004e+00 0.0000000000000000e+00 0.0000000000000000e+00
2.5000000000000000e+00 0.0000000000000000e+00 0.0000000000000000e+00
2.6000000000000001e+00 0.0000000000000000e+00 0.0000000000000000e+00
2.7000000000000002e+00 0.0000000000000000e+00 0.0000000000000000e+00
2.8000000000000003e+00 0.0000000000000000e+00 0.0000000000000000e+00
2.9000000000000004e+00 0.0000000000000000e+00 0.0000000000000000e+00
3.0000000000000000e+00 0.0000000000000000e+00 0.0000000000000000e+00
3.1000000000000001e+00 0.0000000000000000e+00 0.0000000000000000e+00
3.2000000000000002e+00 0.0000000000000000e+00 0.0000000000000000e+00
3.3000000000000003e+00 0.0000000000000000e+00 0.0000000000000000e+00
3.4000000000000004e+00 0.0000000000000000e+00 0.0000000000000000e+00
3.5000000000000000e+00 0.0000000000000000e+00 0.0000000000000000e+00
3.6000000000000001e+00 0.0000000000000000e+00 0.0000000000000000e+00
3.7000000000000002e+00 0.0000000000000000e+00 0.0000000000000000e+00
3.8000000000000003e+00 0.0000000000000000e+00 0.0000000000000000e+00
3.9000000000000004e+00 0.0000000000000000e+00 0.0000000000000000e+00
4.0000000000000000e+00 0.0000000000000000e+00 0.0000000000000000e+00
4.1000000000000005e+00 0.0000000000000000e+00 0.0000000000000000e+00
4.2000000000000002e+00 0.0000000000000000e+00 0.0000000000000000e+00
4.2999999999999998e+00 0.0000000000000000e+00 0.0000000000000000e+00
4.4000000000000004e+00 0.0000000000000000e+00 0.0000000000000000e+00
4.5000000000000000e+00 0.0000000000000000e+00 0.0000000000000000e+00
4.6000000000000005e+00 0.0000000000000000e+00 0.0000000000000000e+00
4.7000000000000002e+00 0.0000000000000000e+00 0.0000000000000000e+00
4.8000000000000007e+00 0.0000000000000000e+00 0.0000000000000000e+00
4.9000000000000004e+00 0.0000000000000000e+00 0.0000000000000000e+00
5.0000000000000000e+00 0.0000000000000000e+00 0.0000000000000000e+00
5.1000000000000005e+00 0.0000000000000000e+00 0.0000000000000000e+00
5.2000000000000002e+00 0.0000000000000000e+00 0.0000000000000000e+00
5.3000000000000007e+00 0.0000000000000000e+00 0.0000000000000000e+00
5.4000000000000004e+00 0.0000000000000000e+00 0.0000000000000000e+00
5.5000000000000000e+00 0.0000000000000000e+00 0.0000000000000000e+00
5.6000000000000005e+00 0.0000000000000000e+00 0.0000000000000000e+00
5.7000000000000002e+00 0.0000000000000000e+00 0.0000000000000000e+00
5.8000000000000007e+00 0.0000000000000000e+00 0.0000000000000000e+00
5.9000000000000004e+00 0.0000000000000000e+00 0.0000000000000000e+00
6.0000000000000000e+00 0.0000000000000000e+00 0.0000000000000000e+00
6.1000000000000005e+00 0.0000000000000000e+00 0.0000000000000000e+00
6.2000000000000002e+00 0.0000000000000000e+00 0.0000000000000000e+00
6.3000000000000007e+00 0.0000000000000000e+00 0.0000000000000000e+00
6.4000000000000004e+00 0.0000000000000000e+00 0.0000000000000000e+00
6.5000000000000000e+00 0.0000000000000000e+00 0.0000000000000000e+00
6.6000000000000005e+00 0.0000000000000000e+00 0.0000000000000000e+00
6.7000000000000002e+00 0.0000000000000000e+00 0.0000000000000000e+00
6.8000000000000007e+00 0.0000000000000000e+00 0.0000000000000000e+00
6.9000000000000004e+00 0.0000000000000000e+00 0.0000000000000000e+00
7.0000000000000000e+00 0.0000000000000000e+00 0.0000000000000000e+00
7.1000000000000005e+00 0.0000000000000000e+00 0.0000000000000000e+00
7.2000000000000002e+00 0.0000000000000000e+00 0.0000000000000000e+00
7.3000000000000007e+00 0.0000000000000000e+00 0.0000000000000000e+00
7.4000000000000004e+00 0.0000000000000000e+00 0.0000000000000000e+00
7.5000000000000000e+00 0.0000000000000000e+00 0.0000000000000000e+00
7.6000000000000005e+00 0.0000000000000000e+00 0.0000000000000000e+00
7.7000000000000002e+00 0.0000000000000000e+00 0.0000000000000000e+00
7.8000000000000007e+00 0.0000000000000000e+00 0.0000000000000000e+00
7.9000000000000004e+00 0.0000000000000000e+00 0.0000000000000000e+00
8.0000000000000000e+00 0.0000000000000000e+00 0.0000000000000000e+00
8.0999999999999996e+00 0.0000000000000000e+00 0.0000000000000000e+00
8.2000000000000011e+00 0.0000000000000000e+00 0.0000000000000000e+00
8.3000000000000007e+00 0.0000000000000000e+00 0.0000000000000000e+00
8.4000000000000004e+00 0.0000000000000000e+00 0.0000000000000000e+00
8.5000000000000000e+00 0.0000000000000000e+00 0.0000000000000000e+00
8.5999999999999996e+00 0.0000000000000000e+00 0.0000000000000000e+00
8.7000000000000011e+00 0.0000000000000000e+00 0.0000000000000000e+00
8.8000000000000007e+00 0.0000000000000000e+00 0.0000000000000000e+00
8.9000000000000004e+00 0.0000000000000000e+00 0.0000000000000000e+00
9.0000000000000000e+00 0.0000000000000000e+00 0.0000000000000000e+00
9.0999999999999996e+00 0.0000000000000000e+00 0.0000000000000000e+00
9.2000000000000011e+00 0.0000000000000000e+00 0.0000000000000000e+00
9.3000000000000007e+00 0.0000000000000000e+00 0.0000000000000000e+00
9.4000000000000004e+00 0.0000000000000000e+00 0.0000000000000000e+00
9.5000000000000000e+00 0.0000000000000000e+00 0.0000000000000000e+00
9.6000000000000014e+00 0.0000000000000000e+00 0.0000000000000000e+00
9.7000000000000011e+00 0.0000000000000000e+00 0.0000000000000000e+00
9.8000000000000007e+00 0.0000000000000000e+00 0.0000000000000000e+00
9.9000000000000004e+00 0.0000000000000000e+00 0.0000000000000000e+00
1.0000000000000000e+01 0.0000000000000000e+00 0.0000000000000000e+00

POINT_DATA 101

VECTORS velocity float
7.1124244245554351e+00 0.0000000000000000e+00 0.0000000000000000e+00
7.1132229375419200e+00 0.0000000000000000e+00 0.0000000000000000e+00
7.1140344029268929e+00 0.0000000000000000e+00 0.0000000000000000e+00
7.1148509198230201e+00 0.0000000000000000e+00 0.0000000000000000e+00
7.1156646910512107e+00 0.0000000000000000e+00 0.0000000000000000e+00
7.1164765644825270e+00 0.0000000000000000e+00 0.0000000000000000e+00
7.1172918132440417e+00 0.0000000000000000e+00 0.0000000000000000e+00
7.1181015521097857e+00 0.0000000000000000e+00 0.0000000000000000e+00
7.1188981166541971e+00 0.0000000000000000e+00 0.0000000000000000e+00
7.1196825589298260e+00 0.0000000000000000e+00 0.0000000000000000e+00
7.1204557653200347e+00 0.0000000000000000e+00 0.0000000000000000e+00
7.1212180724055028e+00 0.0000000000000000e+00 0.0000000000000000e+00
7.1219726520033948e+00 0.0000000000000000e+00 0.0000000000000000e+00
7.1227245378296704e+00 0.0000000000000000e+00 0.0000000000000000e+00
7.1234721639289607e+00 0.0000000000000000e+00 0.0000000000000000e+00
7.1242122457035126e+00 0.0000000000000000e+00 0.0000000000000000e+00
7.1249392362006425e+00 0.0000000000000000e+00 0.0000000000000000e+00
7.1256522063954728e+00 0.0000000000000000e+00 0.0000000000000000e+00
7.1263576063126823e+00 0.0000000000000000e+00 0.0000000000000000e+00
7.1270572274870005e+00 0.0000000000000000e+00 0.0000000000000000e+00
7.1277482878943887e+00 0.0000000000000000e+00 0.0000000000000000e+00
7.1284282789328328e+00 0.0000000000000000e+00 0.0000000000000000e+00
7.1290955544635892e+00 0.0000000000000000e+00 0.0000000000000000e+00
7.1297504056740602e+00 0.0000000000000000e+00 0.0000000000000000e+00
7.1304061256948357e+00 0.0000000000000000e+00 0.0000000000000000e+00
7.1310593230038242e+00 0.0000000000000000e+00 0.0000000000000000e+00
7.1316979819093618e+00 0.0000000000000000e+00 0.0000000000000000e+00
7.1323265491397025e+00 0.0000000000000000e+00 0.0000000000000000e+00
7.1329456735383321e+00 0.0000000000000000e+00 0.0000000000000000e+00
7.1335543487230044e+00 0.0000000000000000e+00 0.0000000000000000e+00
7.1341520512831478e+00 0.0000000000000000e+00 0.0000000000000000e+00
7.1347396427498531e+00 0.0000000000000000e+00 0.0000000000000000e+00
7.1353178909061032e+00 0.0000000000000000e+00 0.0000000000000000e+00
7.1358876731318261e+00 0.0000000000000000e+00 0.0000000000000000e+00
7.1364486366206146e+00 0.0000000000000000e+00 0.0000000000000000e+00
7.1370005164795041e+00 0.0000000000000000e+00 0.0000000000000000e+00
7.1375431798023383e+00 0.0000000000000000e+00 0.0000000000000000e+00
7.1380766870729300e+00 0.0000000000000000e+00 0.0000000000000000e+00
7.1386006808121314e+00 0.0000000000000000e+00 0.0000000000000000e+00
7.1391161571968107e+00 0.0000000000000000e+00 0.0000000000000000e+00
7.1396237129748892e+00 0.0000000000000000e+00 0.0000000000000000e+00
7.1401223824694693e+00 0.0000000000000000e+00 0.0000000000000000e+00
7.1406119577121290e+00 0.0000000000000000e+00 0.0000000000000000e+00
7.1410923052140696e+00 0.0000000000000000e+00 0.0000000000000000e+00
7.1415633361159330e+00 0.0000000000000000e+00 0.0000000000000000e+00
7.1420249902011408e+00 0.0000000000000000e+00 0.0000000000000000e+00
7.1424772262430620e+00 0.0000000000000000e+00 0.0000000000000000e+00
7.1429200149651262e+00 0.0000000000000000e+00 0.0000000000000000e+00
7.1433533350650738e+00 0.0000000000000000e+00 0.0000000000000000e+00
7.1437771699490913e+00 0.0000000000000000e+00 0.0000000000000000e+00
7.1441915064049963e+00 0.0000000000000000e+00 0.0000000000000000e+00
7.1445963334594156e+00 0.0000000000000000e+00 0.0000000000000000e+00
7.1449916412161940e+00 0.0000000000000000e+00 0.0000000000000000e+00
7.1453774213692887e+00 0.0000000000000000e+00 0.0000000000000000e+00
7.1457536662527987e+00 0.0000000000000000e+00 0.0000000000000000e+00
7.1461203677226264e+00 0.0000000000000000e+00 0.0000000000000000e+00
7.1464775178992266e+00 0.0000000000000000e+00 0.0000000000000000e+00
7.1468251105877192e+00 0.0000000000000000e+00 0.0000000000000000e+00
7.1471631397839550e+00 0.0000000000000000e+00 0.0000000000000000e+00
7.1474915988652299e+00 0.0000000000000000e+00 0.0000000000000000e+00
7.1478104817356041e+00 0.0000000000000000e+00 0.0000000000000000e+00
7.1481197832227403e+00 0.0000000000000000e+00 0.0000000000000000e+00
7.1484194977145172e+00 0.0000000000000000e+00 0.0000000000000000e+00
7.1487096192678168e+00 0.0000000000000000e+00 0.0000000000000000e+00
7.1489901425995441e+00 0.0000000000000000e+00 0.0000000000000000e+00
7.1492610626216777e+00 0.0000000000000000e+00 0.0000000000000000e+00
7.1495223744019167e+00 0.0000000000000000e+00 0.0000000000000000e+00
7.1497740733681399e+00 0.0000000000000000e+00 0.0000000000000000e+00
7.1500161551185393e+00 0.0000000000000000e+00 0.0000000000000000e+00
7.1502486154380502e+00 0.0000000000000000e+00 0.0000000000000000e+00
7.1504714501893218e+00 0.0000000000000000e+00 0.0000000000000000e+00
7.1506846555544010e+00 0.0000000000000000e+00 0.0000000000000000e+00
7.1508882277396904e+00 0.0000000000000000e+00 0.0000000000000000e+00
7.1510821632436752e+00 0.0000000000000000e+00 0.0000000000000000e+00
7.1512664590254014e+00 0.0000000000000000e+00 0.0000000000000000e+00
7.1514411115172374e+00 0.0000000000000000e+00 0.0000000000000000e+00
7.1516061183747066e+00 0.0000000000000000e+00 0.0000000000000000e+00
7.1517614762262003e+00 0.0000000000000000e+00 0.0000000000000000e+00
7.1519071834479773e+00 0.0000000000000000e+00 0.0000000000000000e+00
7.1520432381724035e+00 0.0000000000000000e+00 0.0000000000000000e+00
7.1521696372376091e+00 0.0000000000000000e+00 0.0000000000000000e+00
7.1522863790770144e+00 0.0000000000000000e+00 0.0000000000000000e+00
7.1523934618070353e+00 0.0000000000000000e+00 0.0000000000000000e+00
7.1524908847275199e+00 0.0000000000000000e+00 0.0000000000000000e+00
7.1525786451381999e+00 0.0000000000000000e+00 0.0000000000000000e+00
7.1526567424426748e+00 0.0000000000000000e+00 0.0000000000000000e+00
7.1527251757455970e+00 0.0000000000000000e+00 0.0000000000000000e+00
7.1527839414337615e+00 0.0000000000000000e+00 0.0000000000000000e+00
7.1528330401294022e+00 0.0000000000000000e+00 0.0000000000000000e+00
7.1528724720493155e+00 0.0000000000000000e+00 0.0000000000000000e+00
7.1529022414479870e+00 0.0000000000000000e+00 0.0000000000000000e+00
7.1529223442390206e+00 0.0000000000000000e+00 0.0000000000000000e+00
7.1529327833288958e+00 0.0000000000000000e+00 0.0000000000000000e+00
7.1529335465667154e+00 0.0000000000000000e+00 0.0000000000000000e+00
7.1529246732905856e+00 0.0000000000000000e+00 0.0000000000000000e+00
7.1529060603712402e+00 0.0000000000000000e+00 0.0000000000000000e+00
7.1528779838668388e+00 0.0000000000000000e+00 0.0000000000000000e+00
7.1528397173658771e+00 0.0000000000000000e+00 0.0000000000000000e+00
7.1527931829927214e+00 0.0000000000000000e+00 0.0000000000000000e+00
7.1527333198589096e+00 0.0000000000000000e+00 0.0000000000000000e+00
7.1526734567250978e+00 0.0000000000000000e+00 0.0000000000000000e+00


SCALARS pressure float
LOOKUP_TABLE default
-1.3437787956321188e+01
-1.3311004537481676e+01
-1.3184221118642164e+01
-1.3057396476878226e+01
-1.2930489853250119e+01
-1.2803457116405117e+01
-1.2676291558813011e+01
-1.2549019467384801e+01
-1.2421609339597378e+01
-1.2294014493137206e+01
-1.2166224506353798e+01
-1.2038240362171354e+01
-1.1910064288290226e+01
-1.1781712435662893e+01
-1.1653214730193865e+01
-1.1524574700754274e+01
-1.1395778366529091e+01
-1.1266795050700393e+01
-1.1137610362389637e+01
-1.1008250604358180e+01
-1.0878734152670386e+01
-1.0749054764243361e+01
-1.0619198535579121e+01
-1.0489152378356151e+01
-1.0358912408127301e+01
-1.0228541628268959e+01
-1.0098047347156943e+01
-9.9673750229260314e+00
-9.8365271316481522e+00
-9.7055078392879377e+00
-9.5743141753393584e+00
-9.4429430054588011e+00
-9.3113976518282993e+00
-9.1796832552803966e+00
-9.0478061631857774e+00
-8.9157673203583077e+00
-8.7835662324255299e+00
-8.6512025335018237e+00
-8.5186768016131573e+00
-8.3859880007577061e+00
-8.2531407748566767e+00
-8.1201396856816537e+00
-7.9869820153926767e+00
-7.8536661230730171e+00
-7.7201910875354764e+00
-7.5865564439326496e+00
-7.4527620183150569e+00
-7.3188078258308762e+00
-7.1846940032451236e+00
-7.0504207670294434e+00
-6.9159883838449625e+00
-6.7813971545027334e+00
-6.6466474029549092e+00
-6.5117394673514211e+00
-6.3766736995779141e+00
-6.2414504604564840e+00
-6.1060701126784949e+00
-5.9705330220261885e+00
-5.8348395646674067e+00
-5.6989901225123551e+00
-5.5629850778066681e+00
-5.4268248167458344e+00
-5.2905097325696984e+00
-5.1540402201308106e+00
-5.0174166745359488e+00
-4.8806394953630852e+00
-4.7437090859232178e+00
-4.6066258528250676e+00
-4.4693902067927569e+00
-4.3320025620597304e+00
-4.1944633362542554e+00
-4.0567729498106040e+00
-3.9189318269122482e+00
-3.7809403944061950e+00
-3.6427990827268899e+00
-3.5045083270456820e+00
-3.3660685628926612e+00
-3.2274802330726837e+00
-3.0887437792080035e+00
-2.9498596521967029e+00
-2.8108283063381236e+00
-2.6716501920040172e+00
-2.5323257670844463e+00
-2.3928554918229090e+00
-2.2532398343853135e+00
-2.1134792571438910e+00
-1.9735742316581026e+00
-1.8335252323914173e+00
-1.6933327230491975e+00
-1.5529971852013456e+00
-1.4125191060980820e+00
-1.2718989954798137e+00
-1.1311373321791514e+00
-9.9023461856304795e-01
-8.4919129542604310e-01
-7.0800802698975063e-01
-5.6668488335426570e-01
-4.2522351793700980e-01
-2.8362141453277456e-01
-1.4188706190669695e-01
0.0000000000000000e+00


SCALARS diameter float
LOOKUP_TABLE default
9.9878205250368202e-01
9.9879766629584499e-01
9.9881081276491179e-01
9.9882288818364839e-01
9.9883493499888509e-01
9.9884711870745313e-01
9.9885689734383365e-01
9.9886614139877417e-01
9.9887758198920396e-01
9.9888981876274296e-01
9.9890252596956353e-01
9.9891537866107938e-01
9.9892814465881608e-01
9.9893934337065970e-01
9.9894946137640073e-01
9.9895976583850399e-01
9.9897090826725554e-01
9.9898375697552111e-01
9.9899601883230549e-01
9.9900725365050180e-01
9.9901841571008554e-01
9.9903027440782766e-01
9.9904289402713453e-01
9.9905626679946602e-01
9.9906801109893650e-01
9.9907654200803875e-01
9.9908811343429549e-01
9.9909978383352160e-01
9.9911148447923970e-01
9.9912326341133695e-01
9.9913556924970692e-01
9.9914791090363508e-01
9.9916028817940095e-01
9.9917239624730259e-01
9.9918442631161597e-01
9.9919648745725065e-01
9.9920858077764729e-01
9.9922070681681485e-01
9.9923286537057765e-01
9.9924502842283713e-01
9.9925676855121537e-01
9.9926853617716238e-01
9.9928033318149256e-01
9.9929215893811030e-01
9.9930401308089201e-01
9.9931589532802390e-01
9.9932780530995891e-01
9.9933974254044866e-01
9.9935170663755868e-01
9.9936369708112005e-01
9.9937571355628463e-01
9.9938775548211789e-01
9.9939982255758386e-01
9.9941191423501818e-01
9.9942403000889846e-01
9.9943616954800407e-01
9.9944833269381350e-01
9.9946051882955345e-01
9.9947272732272374e-01
9.9948495785490743e-01
9.9949721006994219e-01
9.9950948336158618e-01
9.9952177724368052e-01
9.9953409148232919e-01
9.9954642564593355e-01
9.9955877926704728e-01
9.9957115194574853e-01
9.9958354321425391e-01
9.9959595261823198e-01
9.9960837971915906e-01
9.9962082408429231e-01
9.9963328529802020e-01
9.9964576289012552e-01
9.9965825650058049e-01
9.9967076556406531e-01
9.9968328975015142e-01
9.9969582861366280e-01
9.9970838157778441e-01
9.9972094849614324e-01
9.9973352819507433e-01
9.9974612109329275e-01
9.9975872623996753e-01
9.9977134351295693e-01
9.9978397207962688e-01
9.9979661180095392e-01
9.9980926240698920e-01
9.9982192291866645e-01
9.9983459384507856e-01
9.9984727450925570e-01
9.9985996388135856e-01
9.9987266130858288e-01
9.9988536578528819e-01
9.9989807898064520e-01
9.9991079882426048e-01
9.9992352544046414e-01
9.9993625813173992e-01
9.9994899664554970e-01
9.9996174047848463e-01
9.9997448911369469e-01
9.9998724194458399e-01
9.9999999978202669e-01


SCALARS iters float
LOOKUP_TABLE default
4.0000000000000000e+00
4.0000000000000000e+00
4.0000000000000000e+00
4.0000000000000000e+00
4.0000000000000000e+00
4.0000000000000000e+00
4.0000000000000000e+00
4.0000000000000000e+00
4.0000000000000000e+00
4.0000000000000000e+00
4.0000000000000000e+00
4.0000000000000000e+00
4.0000000000000000e+00
4.0000000000000000e+00
4.0000000000000000e+00
4.0000000000000000e+00
4.0000000000000000e+00
4.0000000000000000e+00
4.0000000000000000e+00
4.0000000000000000e+00
4.0000000000000000e+00
4.0000000000000000e+00
4.0000000000000000e+00
4.0000000000000000e+00
4.0000000000000000e+00
4.0000000000000000e+00
4.0000000000000000e+00
4.0000000000000000e+00
4.0000000000000000e+00
4.0000000000000000e+00
4.0000000000000000e+00
4.0000000000000000e+00
4.0000000000000000e+00
4.0000000000000000e+00
4.0000000000000000e+00
4.0000000000000000e+00
4.0000000000000000e+00
4.0000000000000000e+00
4.0000000000000000e+00
4.0000000000000000e+00
4.0000000000000000e+00
4.0000000000000000e+00
4.0000000000000000e+00
4.0000000000000000e+00
4.0000000000000000e+00
4.0000000000000000e+00
4.0000000000000000e+00
4.0000000000000000e+00
4.0000000000000000e+00
4.0000000000000000e+00
4.0000000000000000e+00
4.0000000000000000e+00
4.0000000000000000e+00
4.0000000000000000e+00
4.0000000000000000e+00
4.0000000000000000e+00
4.0000000000000000e+00
4.0000000000000000e+00
4.0000000000000000e+00
4.0000000000000000e+00
4.0000000000000000e+00
4.0000000000000000e+00
4.0000000000000000e+00
4.0000000000000000e+00
4.0000000000000000e+00
4.0000000000000000e+00
4.0000000000000000e+00
4.0000000000000000e+00
4.0000000000000000e+00
4.0000000000000000e+00
4.0000000000000000e+00
4.0000000000000000e+00
4.0000000000000000e+00
4.0000000000000000e+00
4.0000000000000000e+00
4.0000000000000000e+00
4.0000000000000000e+00
4.0000000000000000e+00
4.0000000000000000e+00
4.0000000000000000e+00
4.0000000000000000e+00
4.0000000000000000e+00
4.0000000000000000e+00
4.0000000000000000e+00
4.0000000000000000e+00
4.0000000000000000e+00
4.0000000000000000e+00
4.0000000000000000e+00
4.0000000000000000e+00
4.0000000000000000e+00
4.0000000000000000e+00
4.0000000000000000e+00
4.0000000000000000e+00
4.0000000000000000e+00
4.0000000000000000e+00
4.0000000000000000e+00
4.0000000000000000e+00
4.0000000000000000e+00
4.0000000000000000e+00
4.0000000000000000e+00
4.0000000000000000e+00


