# vtk DataFile Version 2.0

ASCII

DATASET UNSTRUCTURED_GRID

POINTS 101 float

0.0000000000000000e+00 0.0000000000000000e+00 0.0000000000000000e+00
1.0000000000000001e-01 0.0000000000000000e+00 0.0000000000000000e+00
2.0000000000000001e-01 0.0000000000000000e+00 0.0000000000000000e+00
3.0000000000000004e-01 0.0000000000000000e+00 0.0000000000000000e+00
4.0000000000000002e-01 0.0000000000000000e+00 0.0000000000000000e+00
5.0000000000000000e-01 0.0000000000000000e+00 0.0000000000000000e+00
6.0000000000000009e-01 0.0000000000000000e+00 0.0000000000000000e+00
7.0000000000000007e-01 0.0000000000000000e+00 0.0000000000000000e+00
8.0000000000000004e-01 0.0000000000000000e+00 0.0000000000000000e+00
9.0000000000000002e-01 0.0000000000000000e+00 0.0000000000000000e+00
1.0000000000000000e+00 0.0000000000000000e+00 0.0000000000000000e+00
1.1000000000000001e+00 0.0000000000000000e+00 0.0000000000000000e+00
1.2000000000000002e+00 0.0000000000000000e+00 0.0000000000000000e+00
1.3000000000000000e+00 0.0000000000000000e+00 0.0000000000000000e+00
1.4000000000000001e+00 0.0000000000000000e+00 0.0000000000000000e+00
1.5000000000000000e+00 0.0000000000000000e+00 0.0000000000000000e+00
1.6000000000000001e+00 0.0000000000000000e+00 0.0000000000000000e+00
1.7000000000000002e+00 0.0000000000000000e+00 0.0000000000000000e+00
1.8000000000000000e+00 0.0000000000000000e+00 0.0000000000000000e+00
1.9000000000000001e+00 0.0000000000000000e+00 0.0000000000000000e+00
2.0000000000000000e+00 0.0000000000000000e+00 0.0000000000000000e+00
2.1000000000000001e+00 0.0000000000000000e+00 0.0000000000000000e+00
2.2000000000000002e+00 0.0000000000000000e+00 0.0000000000000000e+00
2.3000000000000003e+00 0.0000000000000000e+00 0.0000000000000000e+00
2.4000000000000004e+00 0.0000000000000000e+00 0.0000000000000000e+00
2.5000000000000000e+00 0.0000000000000000e+00 0.0000000000000000e+00
2.6000000000000001e+00 0.0000000000000000e+00 0.0000000000000000e+00
2.7000000000000002e+00 0.0000000000000000e+00 0.0000000000000000e+00
2.8000000000000003e+00 0.0000000000000000e+00 0.0000000000000000e+00
2.9000000000000004e+00 0.0000000000000000e+00 0.0000000000000000e+00
3.0000000000000000e+00 0.0000000000000000e+00 0.0000000000000000e+00
3.1000000000000001e+00 0.0000000000000000e+00 0.0000000000000000e+00
3.2000000000000002e+00 0.0000000000000000e+00 0.0000000000000000e+00
3.3000000000000003e+00 0.0000000000000000e+00 0.0000000000000000e+00
3.4000000000000004e+00 0.0000000000000000e+00 0.0000000000000000e+00
3.5000000000000000e+00 0.0000000000000000e+00 0.0000000000000000e+00
3.6000000000000001e+00 0.0000000000000000e+00 0.0000000000000000e+00
3.7000000000000002e+00 0.0000000000000000e+00 0.0000000000000000e+00
3.8000000000000003e+00 0.0000000000000000e+00 0.0000000000000000e+00
3.9000000000000004e+00 0.0000000000000000e+00 0.0000000000000000e+00
4.0000000000000000e+00 0.0000000000000000e+00 0.0000000000000000e+00
4.1000000000000005e+00 0.0000000000000000e+00 0.0000000000000000e+00
4.2000000000000002e+00 0.0000000000000000e+00 0.0000000000000000e+00
4.2999999999999998e+00 0.0000000000000000e+00 0.0000000000000000e+00
4.4000000000000004e+00 0.0000000000000000e+00 0.0000000000000000e+00
4.5000000000000000e+00 0.0000000000000000e+00 0.0000000000000000e+00
4.6000000000000005e+00 0.0000000000000000e+00 0.0000000000000000e+00
4.7000000000000002e+00 0.0000000000000000e+00 0.0000000000000000e+00
4.8000000000000007e+00 0.0000000000000000e+00 0.0000000000000000e+00
4.9000000000000004e+00 0.0000000000000000e+00 0.0000000000000000e+00
5.0000000000000000e+00 0.0000000000000000e+00 0.0000000000000000e+00
5.1000000000000005e+00 0.0000000000000000e+00 0.0000000000000000e+00
5.2000000000000002e+00 0.0000000000000000e+00 0.0000000000000000e+00
5.3000000000000007e+00 0.0000000000000000e+00 0.0000000000000000e+00
5.4000000000000004e+00 0.0000000000000000e+00 0.0000000000000000e+00
5.5000000000000000e+00 0.0000000000000000e+00 0.0000000000000000e+00
5.6000000000000005e+00 0.0000000000000000e+00 0.0000000000000000e+00
5.7000000000000002e+00 0.0000000000000000e+00 0.0000000000000000e+00
5.8000000000000007e+00 0.0000000000000000e+00 0.0000000000000000e+00
5.9000000000000004e+00 0.0000000000000000e+00 0.0000000000000000e+00
6.0000000000000000e+00 0.0000000000000000e+00 0.0000000000000000e+00
6.1000000000000005e+00 0.0000000000000000e+00 0.0000000000000000e+00
6.2000000000000002e+00 0.0000000000000000e+00 0.0000000000000000e+00
6.3000000000000007e+00 0.0000000000000000e+00 0.0000000000000000e+00
6.4000000000000004e+00 0.0000000000000000e+00 0.0000000000000000e+00
6.5000000000000000e+00 0.0000000000000000e+00 0.0000000000000000e+00
6.6000000000000005e+00 0.0000000000000000e+00 0.0000000000000000e+00
6.7000000000000002e+00 0.0000000000000000e+00 0.0000000000000000e+00
6.8000000000000007e+00 0.0000000000000000e+00 0.0000000000000000e+00
6.9000000000000004e+00 0.0000000000000000e+00 0.0000000000000000e+00
7.0000000000000000e+00 0.0000000000000000e+00 0.0000000000000000e+00
7.1000000000000005e+00 0.0000000000000000e+00 0.0000000000000000e+00
7.2000000000000002e+00 0.0000000000000000e+00 0.0000000000000000e+00
7.3000000000000007e+00 0.0000000000000000e+00 0.0000000000000000e+00
7.4000000000000004e+00 0.0000000000000000e+00 0.0000000000000000e+00
7.5000000000000000e+00 0.0000000000000000e+00 0.0000000000000000e+00
7.6000000000000005e+00 0.0000000000000000e+00 0.0000000000000000e+00
7.7000000000000002e+00 0.0000000000000000e+00 0.0000000000000000e+00
7.8000000000000007e+00 0.0000000000000000e+00 0.0000000000000000e+00
7.9000000000000004e+00 0.0000000000000000e+00 0.0000000000000000e+00
8.0000000000000000e+00 0.0000000000000000e+00 0.0000000000000000e+00
8.0999999999999996e+00 0.0000000000000000e+00 0.0000000000000000e+00
8.2000000000000011e+00 0.0000000000000000e+00 0.0000000000000000e+00
8.3000000000000007e+00 0.0000000000000000e+00 0.0000000000000000e+00
8.4000000000000004e+00 0.0000000000000000e+00 0.0000000000000000e+00
8.5000000000000000e+00 0.0000000000000000e+00 0.0000000000000000e+00
8.5999999999999996e+00 0.0000000000000000e+00 0.0000000000000000e+00
8.7000000000000011e+00 0.0000000000000000e+00 0.0000000000000000e+00
8.8000000000000007e+00 0.0000000000000000e+00 0.0000000000000000e+00
8.9000000000000004e+00 0.0000000000000000e+00 0.0000000000000000e+00
9.0000000000000000e+00 0.0000000000000000e+00 0.0000000000000000e+00
9.0999999999999996e+00 0.0000000000000000e+00 0.0000000000000000e+00
9.2000000000000011e+00 0.0000000000000000e+00 0.0000000000000000e+00
9.3000000000000007e+00 0.0000000000000000e+00 0.0000000000000000e+00
9.4000000000000004e+00 0.0000000000000000e+00 0.0000000000000000e+00
9.5000000000000000e+00 0.0000000000000000e+00 0.0000000000000000e+00
9.6000000000000014e+00 0.0000000000000000e+00 0.0000000000000000e+00
9.7000000000000011e+00 0.0000000000000000e+00 0.0000000000000000e+00
9.8000000000000007e+00 0.0000000000000000e+00 0.0000000000000000e+00
9.9000000000000004e+00 0.0000000000000000e+00 0.0000000000000000e+00
1.0000000000000000e+01 0.0000000000000000e+00 0.0000000000000000e+00

POINT_DATA 101

VECTORS velocity float
5.8670011597704930e+00 0.0000000000000000e+00 0.0000000000000000e+00
5.8667080897116195e+00 0.0000000000000000e+00 0.0000000000000000e+00
5.8664196801975024e+00 0.0000000000000000e+00 0.0000000000000000e+00
5.8661384547250464e+00 0.0000000000000000e+00 0.0000000000000000e+00
5.8658634366256770e+00 0.0000000000000000e+00 0.0000000000000000e+00
5.8655932153844050e+00 0.0000000000000000e+00 0.0000000000000000e+00
5.8653279467936699e+00 0.0000000000000000e+00 0.0000000000000000e+00
5.8650724413655704e+00 0.0000000000000000e+00 0.0000000000000000e+00
5.8648217542651135e+00 0.0000000000000000e+00 0.0000000000000000e+00
5.8645638969372680e+00 0.0000000000000000e+00 0.0000000000000000e+00
5.8643016986529819e+00 0.0000000000000000e+00 0.0000000000000000e+00
5.8640381170127256e+00 0.0000000000000000e+00 0.0000000000000000e+00
5.8637715377570210e+00 0.0000000000000000e+00 0.0000000000000000e+00
5.8635033476969776e+00 0.0000000000000000e+00 0.0000000000000000e+00
5.8632375670472632e+00 0.0000000000000000e+00 0.0000000000000000e+00
5.8629727990405707e+00 0.0000000000000000e+00 0.0000000000000000e+00
5.8627137817218058e+00 0.0000000000000000e+00 0.0000000000000000e+00
5.8624631036526500e+00 0.0000000000000000e+00 0.0000000000000000e+00
5.8622104611564527e+00 0.0000000000000000e+00 0.0000000000000000e+00
5.8619510922419167e+00 0.0000000000000000e+00 0.0000000000000000e+00
5.8616879605908050e+00 0.0000000000000000e+00 0.0000000000000000e+00
5.8614242833148120e+00 0.0000000000000000e+00 0.0000000000000000e+00
5.8611623798748029e+00 0.0000000000000000e+00 0.0000000000000000e+00
5.8609056596899292e+00 0.0000000000000000e+00 0.0000000000000000e+00
5.8606513473940174e+00 0.0000000000000000e+00 0.0000000000000000e+00
5.8603946573468821e+00 0.0000000000000000e+00 0.0000000000000000e+00
5.8601389449343060e+00 0.0000000000000000e+00 0.0000000000000000e+00
5.8598839310435782e+00 0.0000000000000000e+00 0.0000000000000000e+00
5.8596297252407723e+00 0.0000000000000000e+00 0.0000000000000000e+00
5.8593753824168129e+00 0.0000000000000000e+00 0.0000000000000000e+00
5.8591203942178831e+00 0.0000000000000000e+00 0.0000000000000000e+00
5.8588653058332296e+00 0.0000000000000000e+00 0.0000000000000000e+00
5.8586104991531833e+00 0.0000000000000000e+00 0.0000000000000000e+00
5.8583569930047181e+00 0.0000000000000000e+00 0.0000000000000000e+00
5.8581047303632952e+00 0.0000000000000000e+00 0.0000000000000000e+00
5.8578533460003017e+00 0.0000000000000000e+00 0.0000000000000000e+00
5.8576027568107421e+00 0.0000000000000000e+00 0.0000000000000000e+00
5.8573528957589147e+00 0.0000000000000000e+00 0.0000000000000000e+00
5.8571037993947641e+00 0.0000000000000000e+00 0.0000000000000000e+00
5.8568552960195159e+00 0.0000000000000000e+00 0.0000000000000000e+00
5.8566074018708756e+00 0.0000000000000000e+00 0.0000000000000000e+00
5.8563602842960663e+00 0.0000000000000000e+00 0.0000000000000000e+00
5.8561139987408204e+00 0.0000000000000000e+00 0.0000000000000000e+00
5.8558685841297766e+00 0.0000000000000000e+00 0.0000000000000000e+00
5.8556240698503537e+00 0.0000000000000000e+00 0.0000000000000000e+00
5.8553804844592063e+00 0.0000000000000000e+00 0.0000000000000000e+00
5.8551378499864004e+00 0.0000000000000000e+00 0.0000000000000000e+00
5.8548961811896971e+00 0.0000000000000000e+00 0.0000000000000000e+00
5.8546554942787177e+00 0.0000000000000000e+00 0.0000000000000000e+00
5.8544158061523301e+00 0.0000000000000000e+00 0.0000000000000000e+00
5.8541771335485873e+00 0.0000000000000000e+00 0.0000000000000000e+00
5.8539394912205118e+00 0.0000000000000000e+00 0.0000000000000000e+00
5.8537028949322849e+00 0.0000000000000000e+00 0.0000000000000000e+00
5.8534673591299828e+00 0.0000000000000000e+00 0.0000000000000000e+00
5.8532328980749018e+00 0.0000000000000000e+00 0.0000000000000000e+00
5.8529995259862755e+00 0.0000000000000000e+00 0.0000000000000000e+00
5.8527672559718038e+00 0.0000000000000000e+00 0.0000000000000000e+00
5.8525361021969715e+00 0.0000000000000000e+00 0.0000000000000000e+00
5.8523060788262278e+00 0.0000000000000000e+00 0.0000000000000000e+00
5.8520771994423439e+00 0.0000000000000000e+00 0.0000000000000000e+00
5.8518494772567484e+00 0.0000000000000000e+00 0.0000000000000000e+00
5.8516229235721333e+00 0.0000000000000000e+00 0.0000000000000000e+00
5.8513975499656645e+00 0.0000000000000000e+00 0.0000000000000000e+00
5.8511733690981407e+00 0.0000000000000000e+00 0.0000000000000000e+00
5.8509503930417885e+00 0.0000000000000000e+00 0.0000000000000000e+00
5.8507286335789317e+00 0.0000000000000000e+00 0.0000000000000000e+00
5.8505081020452812e+00 0.0000000000000000e+00 0.0000000000000000e+00
5.8502888098306141e+00 0.0000000000000000e+00 0.0000000000000000e+00
5.8500707680284316e+00 0.0000000000000000e+00 0.0000000000000000e+00
5.8498539872079531e+00 0.0000000000000000e+00 0.0000000000000000e+00
5.8496384774875922e+00 0.0000000000000000e+00 0.0000000000000000e+00
5.8494242483289343e+00 0.0000000000000000e+00 0.0000000000000000e+00
5.8492113087572486e+00 0.0000000000000000e+00 0.0000000000000000e+00
5.8489996686660195e+00 0.0000000000000000e+00 0.0000000000000000e+00
5.8487893370174779e+00 0.0000000000000000e+00 0.0000000000000000e+00
5.8485803234108049e+00 0.0000000000000000e+00 0.0000000000000000e+00
5.8483726376068486e+00 0.0000000000000000e+00 0.0000000000000000e+00
5.8481662876284624e+00 0.0000000000000000e+00 0.0000000000000000e+00
5.8479612815137560e+00 0.0000000000000000e+00 0.0000000000000000e+00
5.8477576258684438e+00 0.0000000000000000e+00 0.0000000000000000e+00
5.8475553288716888e+00 0.0000000000000000e+00 0.0000000000000000e+00
5.8473543978116291e+00 0.0000000000000000e+00 0.0000000000000000e+00
5.8471548398956088e+00 0.0000000000000000e+00 0.0000000000000000e+00
5.8469566647221720e+00 0.0000000000000000e+00 0.0000000000000000e+00
5.8467598781031143e+00 0.0000000000000000e+00 0.0000000000000000e+00
5.8465644813292394e+00 0.0000000000000000e+00 0.0000000000000000e+00
5.8463704829159715e+00 0.0000000000000000e+00 0.0000000000000000e+00
5.8461778902908357e+00 0.0000000000000000e+00 0.0000000000000000e+00
5.8459867069593630e+00 0.0000000000000000e+00 0.0000000000000000e+00
5.8457969420867748e+00 0.0000000000000000e+00 0.0000000000000000e+00
5.8456086010131738e+00 0.0000000000000000e+00 0.0000000000000000e+00
5.8454216839015549e+00 0.0000000000000000e+00 0.0000000000000000e+00
5.8452361952886589e+00 0.0000000000000000e+00 0.0000000000000000e+00
5.8450521449732964e+00 0.0000000000000000e+00 0.0000000000000000e+00
5.8448695302673981e+00 0.0000000000000000e+00 0.0000000000000000e+00
5.8446883662316571e+00 0.0000000000000000e+00 0.0000000000000000e+00
5.8445086230283732e+00 0.0000000000000000e+00 0.0000000000000000e+00
5.8443304010960162e+00 0.0000000000000000e+00 0.0000000000000000e+00
5.8441534339568442e+00 0.0000000000000000e+00 0.0000000000000000e+00
5.8439784497681924e+00 0.0000000000000000e+00 0.0000000000000000e+00
5.8438034655795397e+00 0.0000000000000000e+00 0.0000000000000000e+00


SCALARS pressure float
LOOKUP_TABLE default
-3.2143881009062909e+01
-3.1823628981388360e+01
-3.1503376953713811e+01
-3.1183125932984112e+01
-3.0862877403481331e+01
-3.0542622760106717e+01
-3.0222350362581032e+01
-2.9902054702361827e+01
-2.9581757543425606e+01
-2.9261445305917501e+01
-2.8941060945075129e+01
-2.8620602216273593e+01
-2.8300082065342391e+01
-2.7979495817715645e+01
-2.7658847026951541e+01
-2.7338154535792984e+01
-2.7017417500451025e+01
-2.6696659845821177e+01
-2.6375902693042054e+01
-2.6055105112930395e+01
-2.5734233447749258e+01
-2.5413291619604081e+01
-2.5092295643808018e+01
-2.4771261964122175e+01
-2.4450212883220772e+01
-2.4129140306340229e+01
-2.3808019641125490e+01
-2.3486861081002246e+01
-2.3165666795467768e+01
-2.2844438510244647e+01
-2.2523173065781521e+01
-2.2201867857264695e+01
-2.1880525083194897e+01
-2.1559147287351191e+01
-2.1237740033812859e+01
-2.0916304959832946e+01
-2.0594841287478669e+01
-2.0273348853289825e+01
-1.9951827718001976e+01
-1.9630278414408625e+01
-1.9308700834575564e+01
-1.8987095856500609e+01
-1.8665465152822080e+01
-1.8343810089645899e+01
-1.8022131874589387e+01
-1.7700431627416400e+01
-1.7378710438922564e+01
-1.7056969359496300e+01
-1.6735209391277678e+01
-1.6413431525771923e+01
-1.6091636750623284e+01
-1.5769826047541095e+01
-1.5448000383393259e+01
-1.5126160721353886e+01
-1.4804308013031449e+01
-1.4482443201770003e+01
-1.4160567224465856e+01
-1.3838681007222830e+01
-1.3516785473730282e+01
-1.3194881542831171e+01
-1.2872970125552603e+01
-1.2551052125213207e+01
-1.2229128430132315e+01
-1.1907199921928354e+01
-1.1585267481728255e+01
-1.1263331984168861e+01
-1.0941394297227227e+01
-1.0619455281499766e+01
-1.0297515792303516e+01
-9.9755766787162461e+00
-9.6536387823024246e+00
-9.3317029371913893e+00
-9.0097699690808799e+00
-8.6878406960702073e+00
-8.3659159349476067e+00
-8.0439964946179607e+00
-7.7220831820363198e+00
-7.4001768011424014e+00
-7.0782781447210130e+00
-6.7563879990292159e+00
-6.4345071390555351e+00
-6.1126363416169402e+00
-5.7907763771830263e+00
-5.4689280114777103e+00
-5.1470920169104968e+00
-4.8252691489268464e+00
-4.5034601346219061e+00
-4.1816657247526487e+00
-3.8598866686980324e+00
-3.5381236946017891e+00
-3.2163775488943562e+00
-2.8946489626761887e+00
-2.5729386385885396e+00
-2.2512472881852714e+00
-1.9295756495762728e+00
-1.6079244036182616e+00
-1.2862943072684516e+00
-9.6468590398239806e-01
-6.4310033118877064e-01
-3.2153709076686221e-01
0.0000000000000000e+00


SCALARS diameter float
LOOKUP_TABLE default
9.9710296115989161e-01
9.9713456633079567e-01
9.9716550727365361e-01
9.9719545495245365e-01
9.9722425239601975e-01
9.9725296457206303e-01
9.9728092243457511e-01
9.9730735591707143e-01
9.9733185640086730e-01
9.9736008943057364e-01
9.9738967552980240e-01
9.9741923258794440e-01
9.9744920257136427e-01
9.9747997076673833e-01
9.9750951147392053e-01
9.9753868623498376e-01
9.9756708754824730e-01
9.9759289379312788e-01
9.9761996386888607e-01
9.9764975454608129e-01
9.9768020889540576e-01
9.9771040285669832e-01
9.9773984479812128e-01
9.9776825399432245e-01
9.9779584213031103e-01
9.9782510345277253e-01
9.9785392165026798e-01
9.9788261974801595e-01
9.9791132587540909e-01
9.9794008062508277e-01
9.9796933229416274e-01
9.9799857394862912e-01
9.9802792937135942e-01
9.9805700052561752e-01
9.9808587747608279e-01
9.9811475927521276e-01
9.9814364596319505e-01
9.9817253838080422e-01
9.9820143529086280e-01
9.9823034336980909e-01
9.9825932258335548e-01
9.9828829853104717e-01
9.9831727472334264e-01
9.9834625223737694e-01
9.9837523148848206e-01
9.9840421174318073e-01
9.9843319188447222e-01
9.9846217420978867e-01
9.9849115847348269e-01
9.9852014469792427e-01
9.9854913216219421e-01
9.9857812138059121e-01
9.9860711207453667e-01
9.9863610422553373e-01
9.9866509806241344e-01
9.9869409331802883e-01
9.9872309030484496e-01
9.9875208888433575e-01
9.9878108870480486e-01
9.9881008975011021e-01
9.9883909191013043e-01
9.9886809548266653e-01
9.9889710083382688e-01
9.9892610747527433e-01
9.9895511540770487e-01
9.9898412449990104e-01
9.9901313480950948e-01
9.9904214621510312e-01
9.9907115863860652e-01
9.9910017206109658e-01
9.9912918654796756e-01
9.9915820216437057e-01
9.9918721911695740e-01
9.9921623722757968e-01
9.9924525635557360e-01
9.9927427660108037e-01
9.9930329731331602e-01
9.9933231892455887e-01
9.9936134128550058e-01
9.9939036485102251e-01
9.9941938932713281e-01
9.9944841457247069e-01
9.9947744072129574e-01
9.9950646707163038e-01
9.9953549337256931e-01
9.9956452145297159e-01
9.9959355098105696e-01
9.9962258000929438e-01
9.9965161067348407e-01
9.9968064100042986e-01
9.9970967118482246e-01
9.9973870222310857e-01
9.9976773493232551e-01
9.9979676683300633e-01
9.9982579909029268e-01
9.9985483228540528e-01
9.9988386548355668e-01
9.9991289891151391e-01
9.9994193251067742e-01
9.9997096796977725e-01
1.0000000075888995e+00


SCALARS iters float
LOOKUP_TABLE default
4.0000000000000000e+00
4.0000000000000000e+00
4.0000000000000000e+00
4.0000000000000000e+00
4.0000000000000000e+00
4.0000000000000000e+00
4.0000000000000000e+00
4.0000000000000000e+00
4.0000000000000000e+00
4.0000000000000000e+00
4.0000000000000000e+00
4.0000000000000000e+00
4.0000000000000000e+00
4.0000000000000000e+00
4.0000000000000000e+00
4.0000000000000000e+00
4.0000000000000000e+00
4.0000000000000000e+00
4.0000000000000000e+00
4.0000000000000000e+00
4.0000000000000000e+00
4.0000000000000000e+00
4.0000000000000000e+00
4.0000000000000000e+00
4.0000000000000000e+00
4.0000000000000000e+00
4.0000000000000000e+00
4.0000000000000000e+00
4.0000000000000000e+00
4.0000000000000000e+00
4.0000000000000000e+00
4.0000000000000000e+00
4.0000000000000000e+00
4.0000000000000000e+00
4.0000000000000000e+00
4.0000000000000000e+00
4.0000000000000000e+00
4.0000000000000000e+00
4.0000000000000000e+00
4.0000000000000000e+00
4.0000000000000000e+00
4.0000000000000000e+00
4.0000000000000000e+00
4.0000000000000000e+00
4.0000000000000000e+00
4.0000000000000000e+00
4.0000000000000000e+00
4.0000000000000000e+00
4.0000000000000000e+00
4.0000000000000000e+00
4.0000000000000000e+00
4.0000000000000000e+00
4.0000000000000000e+00
4.0000000000000000e+00
4.0000000000000000e+00
4.0000000000000000e+00
4.0000000000000000e+00
4.0000000000000000e+00
4.0000000000000000e+00
4.0000000000000000e+00
4.0000000000000000e+00
4.0000000000000000e+00
4.0000000000000000e+00
4.0000000000000000e+00
4.0000000000000000e+00
4.0000000000000000e+00
4.0000000000000000e+00
4.0000000000000000e+00
4.0000000000000000e+00
4.0000000000000000e+00
4.0000000000000000e+00
4.0000000000000000e+00
4.0000000000000000e+00
4.0000000000000000e+00
4.0000000000000000e+00
4.0000000000000000e+00
4.0000000000000000e+00
4.0000000000000000e+00
4.0000000000000000e+00
4.0000000000000000e+00
4.0000000000000000e+00
4.0000000000000000e+00
4.0000000000000000e+00
4.0000000000000000e+00
4.0000000000000000e+00
4.0000000000000000e+00
4.0000000000000000e+00
4.0000000000000000e+00
4.0000000000000000e+00
4.0000000000000000e+00
4.0000000000000000e+00
4.0000000000000000e+00
4.0000000000000000e+00
4.0000000000000000e+00
4.0000000000000000e+00
4.0000000000000000e+00
4.0000000000000000e+00
4.0000000000000000e+00
4.0000000000000000e+00
4.0000000000000000e+00
4.0000000000000000e+00


