# vtk DataFile Version 2.0

ASCII

DATASET UNSTRUCTURED_GRID

POINTS 101 float

0.0000000000000000e+00 0.0000000000000000e+00 0.0000000000000000e+00
1.0000000000000001e-01 0.0000000000000000e+00 0.0000000000000000e+00
2.0000000000000001e-01 0.0000000000000000e+00 0.0000000000000000e+00
3.0000000000000004e-01 0.0000000000000000e+00 0.0000000000000000e+00
4.0000000000000002e-01 0.0000000000000000e+00 0.0000000000000000e+00
5.0000000000000000e-01 0.0000000000000000e+00 0.0000000000000000e+00
6.0000000000000009e-01 0.0000000000000000e+00 0.0000000000000000e+00
7.0000000000000007e-01 0.0000000000000000e+00 0.0000000000000000e+00
8.0000000000000004e-01 0.0000000000000000e+00 0.0000000000000000e+00
9.0000000000000002e-01 0.0000000000000000e+00 0.0000000000000000e+00
1.0000000000000000e+00 0.0000000000000000e+00 0.0000000000000000e+00
1.1000000000000001e+00 0.0000000000000000e+00 0.0000000000000000e+00
1.2000000000000002e+00 0.0000000000000000e+00 0.0000000000000000e+00
1.3000000000000000e+00 0.0000000000000000e+00 0.0000000000000000e+00
1.4000000000000001e+00 0.0000000000000000e+00 0.0000000000000000e+00
1.5000000000000000e+00 0.0000000000000000e+00 0.0000000000000000e+00
1.6000000000000001e+00 0.0000000000000000e+00 0.0000000000000000e+00
1.7000000000000002e+00 0.0000000000000000e+00 0.0000000000000000e+00
1.8000000000000000e+00 0.0000000000000000e+00 0.0000000000000000e+00
1.9000000000000001e+00 0.0000000000000000e+00 0.0000000000000000e+00
2.0000000000000000e+00 0.0000000000000000e+00 0.0000000000000000e+00
2.1000000000000001e+00 0.0000000000000000e+00 0.0000000000000000e+00
2.2000000000000002e+00 0.0000000000000000e+00 0.0000000000000000e+00
2.3000000000000003e+00 0.0000000000000000e+00 0.0000000000000000e+00
2.4000000000000004e+00 0.0000000000000000e+00 0.0000000000000000e+00
2.5000000000000000e+00 0.0000000000000000e+00 0.0000000000000000e+00
2.6000000000000001e+00 0.0000000000000000e+00 0.0000000000000000e+00
2.7000000000000002e+00 0.0000000000000000e+00 0.0000000000000000e+00
2.8000000000000003e+00 0.0000000000000000e+00 0.0000000000000000e+00
2.9000000000000004e+00 0.0000000000000000e+00 0.0000000000000000e+00
3.0000000000000000e+00 0.0000000000000000e+00 0.0000000000000000e+00
3.1000000000000001e+00 0.0000000000000000e+00 0.0000000000000000e+00
3.2000000000000002e+00 0.0000000000000000e+00 0.0000000000000000e+00
3.3000000000000003e+00 0.0000000000000000e+00 0.0000000000000000e+00
3.4000000000000004e+00 0.0000000000000000e+00 0.0000000000000000e+00
3.5000000000000000e+00 0.0000000000000000e+00 0.0000000000000000e+00
3.6000000000000001e+00 0.0000000000000000e+00 0.0000000000000000e+00
3.7000000000000002e+00 0.0000000000000000e+00 0.0000000000000000e+00
3.8000000000000003e+00 0.0000000000000000e+00 0.0000000000000000e+00
3.9000000000000004e+00 0.0000000000000000e+00 0.0000000000000000e+00
4.0000000000000000e+00 0.0000000000000000e+00 0.0000000000000000e+00
4.1000000000000005e+00 0.0000000000000000e+00 0.0000000000000000e+00
4.2000000000000002e+00 0.0000000000000000e+00 0.0000000000000000e+00
4.2999999999999998e+00 0.0000000000000000e+00 0.0000000000000000e+00
4.4000000000000004e+00 0.0000000000000000e+00 0.0000000000000000e+00
4.5000000000000000e+00 0.0000000000000000e+00 0.0000000000000000e+00
4.6000000000000005e+00 0.0000000000000000e+00 0.0000000000000000e+00
4.7000000000000002e+00 0.0000000000000000e+00 0.0000000000000000e+00
4.8000000000000007e+00 0.0000000000000000e+00 0.0000000000000000e+00
4.9000000000000004e+00 0.0000000000000000e+00 0.0000000000000000e+00
5.0000000000000000e+00 0.0000000000000000e+00 0.0000000000000000e+00
5.1000000000000005e+00 0.0000000000000000e+00 0.0000000000000000e+00
5.2000000000000002e+00 0.0000000000000000e+00 0.0000000000000000e+00
5.3000000000000007e+00 0.0000000000000000e+00 0.0000000000000000e+00
5.4000000000000004e+00 0.0000000000000000e+00 0.0000000000000000e+00
5.5000000000000000e+00 0.0000000000000000e+00 0.0000000000000000e+00
5.6000000000000005e+00 0.0000000000000000e+00 0.0000000000000000e+00
5.7000000000000002e+00 0.0000000000000000e+00 0.0000000000000000e+00
5.8000000000000007e+00 0.0000000000000000e+00 0.0000000000000000e+00
5.9000000000000004e+00 0.0000000000000000e+00 0.0000000000000000e+00
6.0000000000000000e+00 0.0000000000000000e+00 0.0000000000000000e+00
6.1000000000000005e+00 0.0000000000000000e+00 0.0000000000000000e+00
6.2000000000000002e+00 0.0000000000000000e+00 0.0000000000000000e+00
6.3000000000000007e+00 0.0000000000000000e+00 0.0000000000000000e+00
6.4000000000000004e+00 0.0000000000000000e+00 0.0000000000000000e+00
6.5000000000000000e+00 0.0000000000000000e+00 0.0000000000000000e+00
6.6000000000000005e+00 0.0000000000000000e+00 0.0000000000000000e+00
6.7000000000000002e+00 0.0000000000000000e+00 0.0000000000000000e+00
6.8000000000000007e+00 0.0000000000000000e+00 0.0000000000000000e+00
6.9000000000000004e+00 0.0000000000000000e+00 0.0000000000000000e+00
7.0000000000000000e+00 0.0000000000000000e+00 0.0000000000000000e+00
7.1000000000000005e+00 0.0000000000000000e+00 0.0000000000000000e+00
7.2000000000000002e+00 0.0000000000000000e+00 0.0000000000000000e+00
7.3000000000000007e+00 0.0000000000000000e+00 0.0000000000000000e+00
7.4000000000000004e+00 0.0000000000000000e+00 0.0000000000000000e+00
7.5000000000000000e+00 0.0000000000000000e+00 0.0000000000000000e+00
7.6000000000000005e+00 0.0000000000000000e+00 0.0000000000000000e+00
7.7000000000000002e+00 0.0000000000000000e+00 0.0000000000000000e+00
7.8000000000000007e+00 0.0000000000000000e+00 0.0000000000000000e+00
7.9000000000000004e+00 0.0000000000000000e+00 0.0000000000000000e+00
8.0000000000000000e+00 0.0000000000000000e+00 0.0000000000000000e+00
8.0999999999999996e+00 0.0000000000000000e+00 0.0000000000000000e+00
8.2000000000000011e+00 0.0000000000000000e+00 0.0000000000000000e+00
8.3000000000000007e+00 0.0000000000000000e+00 0.0000000000000000e+00
8.4000000000000004e+00 0.0000000000000000e+00 0.0000000000000000e+00
8.5000000000000000e+00 0.0000000000000000e+00 0.0000000000000000e+00
8.5999999999999996e+00 0.0000000000000000e+00 0.0000000000000000e+00
8.7000000000000011e+00 0.0000000000000000e+00 0.0000000000000000e+00
8.8000000000000007e+00 0.0000000000000000e+00 0.0000000000000000e+00
8.9000000000000004e+00 0.0000000000000000e+00 0.0000000000000000e+00
9.0000000000000000e+00 0.0000000000000000e+00 0.0000000000000000e+00
9.0999999999999996e+00 0.0000000000000000e+00 0.0000000000000000e+00
9.2000000000000011e+00 0.0000000000000000e+00 0.0000000000000000e+00
9.3000000000000007e+00 0.0000000000000000e+00 0.0000000000000000e+00
9.4000000000000004e+00 0.0000000000000000e+00 0.0000000000000000e+00
9.5000000000000000e+00 0.0000000000000000e+00 0.0000000000000000e+00
9.6000000000000014e+00 0.0000000000000000e+00 0.0000000000000000e+00
9.7000000000000011e+00 0.0000000000000000e+00 0.0000000000000000e+00
9.8000000000000007e+00 0.0000000000000000e+00 0.0000000000000000e+00
9.9000000000000004e+00 0.0000000000000000e+00 0.0000000000000000e+00
1.0000000000000000e+01 0.0000000000000000e+00 0.0000000000000000e+00

POINT_DATA 101

VECTORS velocity float
5.7535140678708014e+00 0.0000000000000000e+00 0.0000000000000000e+00
5.7537874512485878e+00 0.0000000000000000e+00 0.0000000000000000e+00
5.7540175584585089e+00 0.0000000000000000e+00 0.0000000000000000e+00
5.7542159906174799e+00 0.0000000000000000e+00 0.0000000000000000e+00
5.7543950960187695e+00 0.0000000000000000e+00 0.0000000000000000e+00
5.7545640723011431e+00 0.0000000000000000e+00 0.0000000000000000e+00
5.7547290215455407e+00 0.0000000000000000e+00 0.0000000000000000e+00
5.7548968539791652e+00 0.0000000000000000e+00 0.0000000000000000e+00
5.7550659064890812e+00 0.0000000000000000e+00 0.0000000000000000e+00
5.7552329331485179e+00 0.0000000000000000e+00 0.0000000000000000e+00
5.7553993074566350e+00 0.0000000000000000e+00 0.0000000000000000e+00
5.7555658186151479e+00 0.0000000000000000e+00 0.0000000000000000e+00
5.7557329345279822e+00 0.0000000000000000e+00 0.0000000000000000e+00
5.7559029592831301e+00 0.0000000000000000e+00 0.0000000000000000e+00
5.7560763574592491e+00 0.0000000000000000e+00 0.0000000000000000e+00
5.7562528967941349e+00 0.0000000000000000e+00 0.0000000000000000e+00
5.7564288462203450e+00 0.0000000000000000e+00 0.0000000000000000e+00
5.7566005360960455e+00 0.0000000000000000e+00 0.0000000000000000e+00
5.7567703356860420e+00 0.0000000000000000e+00 0.0000000000000000e+00
5.7569400169769587e+00 0.0000000000000000e+00 0.0000000000000000e+00
5.7571102864823374e+00 0.0000000000000000e+00 0.0000000000000000e+00
5.7572820511845704e+00 0.0000000000000000e+00 0.0000000000000000e+00
5.7574571814058100e+00 0.0000000000000000e+00 0.0000000000000000e+00
5.7576365441121995e+00 0.0000000000000000e+00 0.0000000000000000e+00
5.7578155023418924e+00 0.0000000000000000e+00 0.0000000000000000e+00
5.7579937462756590e+00 0.0000000000000000e+00 0.0000000000000000e+00
5.7581725543606055e+00 0.0000000000000000e+00 0.0000000000000000e+00
5.7583518758093328e+00 0.0000000000000000e+00 0.0000000000000000e+00
5.7585318715549274e+00 0.0000000000000000e+00 0.0000000000000000e+00
5.7587116332336343e+00 0.0000000000000000e+00 0.0000000000000000e+00
5.7588905571984190e+00 0.0000000000000000e+00 0.0000000000000000e+00
5.7590692613485706e+00 0.0000000000000000e+00 0.0000000000000000e+00
5.7592483177098250e+00 0.0000000000000000e+00 0.0000000000000000e+00
5.7594286332150029e+00 0.0000000000000000e+00 0.0000000000000000e+00
5.7596099577401034e+00 0.0000000000000000e+00 0.0000000000000000e+00
5.7597918944896485e+00 0.0000000000000000e+00 0.0000000000000000e+00
5.7599743200766271e+00 0.0000000000000000e+00 0.0000000000000000e+00
5.7601571402878262e+00 0.0000000000000000e+00 0.0000000000000000e+00
5.7603403270047915e+00 0.0000000000000000e+00 0.0000000000000000e+00
5.7605237889197847e+00 0.0000000000000000e+00 0.0000000000000000e+00
5.7607075886350518e+00 0.0000000000000000e+00 0.0000000000000000e+00
5.7608917574244449e+00 0.0000000000000000e+00 0.0000000000000000e+00
5.7610763084060883e+00 0.0000000000000000e+00 0.0000000000000000e+00
5.7612612420695424e+00 0.0000000000000000e+00 0.0000000000000000e+00
5.7614465530659622e+00 0.0000000000000000e+00 0.0000000000000000e+00
5.7616322321744846e+00 0.0000000000000000e+00 0.0000000000000000e+00
5.7618182665304261e+00 0.0000000000000000e+00 0.0000000000000000e+00
5.7620046394635356e+00 0.0000000000000000e+00 0.0000000000000000e+00
5.7621913351996010e+00 0.0000000000000000e+00 0.0000000000000000e+00
5.7623783377783289e+00 0.0000000000000000e+00 0.0000000000000000e+00
5.7625656297742971e+00 0.0000000000000000e+00 0.0000000000000000e+00
5.7627531953189468e+00 0.0000000000000000e+00 0.0000000000000000e+00
5.7629410170133397e+00 0.0000000000000000e+00 0.0000000000000000e+00
5.7631290771245993e+00 0.0000000000000000e+00 0.0000000000000000e+00
5.7633173594301548e+00 0.0000000000000000e+00 0.0000000000000000e+00
5.7635058482608432e+00 0.0000000000000000e+00 0.0000000000000000e+00
5.7636945272316051e+00 0.0000000000000000e+00 0.0000000000000000e+00
5.7638833803372780e+00 0.0000000000000000e+00 0.0000000000000000e+00
5.7640723923772299e+00 0.0000000000000000e+00 0.0000000000000000e+00
5.7642615477979877e+00 0.0000000000000000e+00 0.0000000000000000e+00
5.7644508309415698e+00 0.0000000000000000e+00 0.0000000000000000e+00
5.7646402270463275e+00 0.0000000000000000e+00 0.0000000000000000e+00
5.7648297217525304e+00 0.0000000000000000e+00 0.0000000000000000e+00
5.7650193005117742e+00 0.0000000000000000e+00 0.0000000000000000e+00
5.7652089492614866e+00 0.0000000000000000e+00 0.0000000000000000e+00
5.7653986541579876e+00 0.0000000000000000e+00 0.0000000000000000e+00
5.7655884015119963e+00 0.0000000000000000e+00 0.0000000000000000e+00
5.7657781780261441e+00 0.0000000000000000e+00 0.0000000000000000e+00
5.7659679705566376e+00 0.0000000000000000e+00 0.0000000000000000e+00
5.7661577660494832e+00 0.0000000000000000e+00 0.0000000000000000e+00
5.7663475518293428e+00 0.0000000000000000e+00 0.0000000000000000e+00
5.7665373154693853e+00 0.0000000000000000e+00 0.0000000000000000e+00
5.7667270448289027e+00 0.0000000000000000e+00 0.0000000000000000e+00
5.7669167278833333e+00 0.0000000000000000e+00 0.0000000000000000e+00
5.7671063527864916e+00 0.0000000000000000e+00 0.0000000000000000e+00
5.7672959082614330e+00 0.0000000000000000e+00 0.0000000000000000e+00
5.7674853828138621e+00 0.0000000000000000e+00 0.0000000000000000e+00
5.7676747658220204e+00 0.0000000000000000e+00 0.0000000000000000e+00
5.7678640459528712e+00 0.0000000000000000e+00 0.0000000000000000e+00
5.7680532125787511e+00 0.0000000000000000e+00 0.0000000000000000e+00
5.7682422562830791e+00 0.0000000000000000e+00 0.0000000000000000e+00
5.7684311671764776e+00 0.0000000000000000e+00 0.0000000000000000e+00
5.7686199353038239e+00 0.0000000000000000e+00 0.0000000000000000e+00
5.7688085502831852e+00 0.0000000000000000e+00 0.0000000000000000e+00
5.7689970037173355e+00 0.0000000000000000e+00 0.0000000000000000e+00
5.7691852871868035e+00 0.0000000000000000e+00 0.0000000000000000e+00
5.7693733934439928e+00 0.0000000000000000e+00 0.0000000000000000e+00
5.7695613127462000e+00 0.0000000000000000e+00 0.0000000000000000e+00
5.7697490344963853e+00 0.0000000000000000e+00 0.0000000000000000e+00
5.7699365509193266e+00 0.0000000000000000e+00 0.0000000000000000e+00
5.7701238550657434e+00 0.0000000000000000e+00 0.0000000000000000e+00
5.7703109429378863e+00 0.0000000000000000e+00 0.0000000000000000e+00
5.7704978035107555e+00 0.0000000000000000e+00 0.0000000000000000e+00
5.7706844342558332e+00 0.0000000000000000e+00 0.0000000000000000e+00
5.7708708168949903e+00 0.0000000000000000e+00 0.0000000000000000e+00
5.7710569668647533e+00 0.0000000000000000e+00 0.0000000000000000e+00
5.7712428348022309e+00 0.0000000000000000e+00 0.0000000000000000e+00
5.7714284937413902e+00 0.0000000000000000e+00 0.0000000000000000e+00
5.7716138144568889e+00 0.0000000000000000e+00 0.0000000000000000e+00
5.7717988995209231e+00 0.0000000000000000e+00 0.0000000000000000e+00
5.7719839845849572e+00 0.0000000000000000e+00 0.0000000000000000e+00


SCALARS pressure float
LOOKUP_TABLE default
3.4963760768222414e+01
3.4629741029095598e+01
3.4295721289968775e+01
3.3961558371296896e+01
3.3627157847921502e+01
3.3292440615585306e+01
3.2957346629867516e+01
3.2621833027614827e+01
3.2285861971126693e+01
3.1949436595395657e+01
3.1612573788740889e+01
3.1275274127292132e+01
3.0937537182037698e+01
3.0599362792082644e+01
3.0260741904749558e+01
2.9921672445552819e+01
2.9582158127041293e+01
2.9242221402907113e+01
2.8901888907396518e+01
2.8561159122531254e+01
2.8220025007398352e+01
2.7878484145929814e+01
2.7536536226705984e+01
2.7194178560992462e+01
2.6851412481983143e+01
2.6508257856316639e+01
2.6164719102451134e+01
2.5820797927891764e+01
2.5476498809155991e+01
2.5131825647123517e+01
2.4786786988123790e+01
2.4441391209279061e+01
2.4095641279325704e+01
2.3749538842398234e+01
2.3403083482743106e+01
2.3056279396336731e+01
2.2709132615489221e+01
2.2361648478980197e+01
2.2013832022273554e+01
2.1665688016420933e+01
2.1317221216203581e+01
2.0968435532086524e+01
2.0619335103672324e+01
2.0269924289201786e+01
1.9920207607153237e+01
1.9570189675457591e+01
1.9219875178447584e+01
1.8869268852310327e+01
1.8518375479143785e+01
1.8167199863373359e+01
1.7815746829724066e+01
1.7464021227138659e+01
1.7112027916343678e+01
1.6759771780249146e+01
1.6407257720528925e+01
1.6054490648635138e+01
1.5701475488022348e+01
1.5348217179684434e+01
1.4994720678011982e+01
1.4640990948356649e+01
1.4287032971221942e+01
1.3932851741851760e+01
1.3578452265235320e+01
1.3223839557019122e+01
1.2869018646240576e+01
1.2513994572728704e+01
1.2158772387500594e+01
1.1803357152822624e+01
1.1447753941023619e+01
1.1091967835016110e+01
1.0736003928437109e+01
1.0379867324222181e+01
1.0023563134593601e+01
9.6670964806663235e+00
9.3104724929770324e+00
8.9536963109322123e+00
8.5967730809630591e+00
8.2397079591841162e+00
7.8825061070389291e+00
7.5251726968953552e+00
7.1677129069895935e+00
6.8101319180577207e+00
6.4524349189987635e+00
6.0946271068519291e+00
5.7367136883203615e+00
5.3786998693401564e+00
5.0205908594296913e+00
4.6623918681244625e+00
4.3041081226241920e+00
3.9457448628414808e+00
3.5873073233836603e+00
3.2288007358506992e+00
2.8702303227425312e+00
2.5116013366555445e+00
2.1529190124154853e+00
1.7941886296987686e+00
1.4354153906509244e+00
1.0766046229231805e+00
7.1776150738997768e-01
3.5889118606339349e-01
0.0000000000000000e+00


SCALARS diameter float
LOOKUP_TABLE default
1.0031725165705190e+00
1.0031354850951064e+00
1.0031015961390697e+00
1.0030707264208345e+00
1.0030415121690051e+00
1.0030122235661794e+00
1.0029828254436857e+00
1.0029522623741161e+00
1.0029207454199216e+00
1.0028903253280723e+00
1.0028601261342667e+00
1.0028298541004177e+00
1.0027994930975057e+00
1.0027686054136589e+00
1.0027369152935208e+00
1.0027050189127842e+00
1.0026731921730185e+00
1.0026431306561878e+00
1.0026132901022200e+00
1.0025833195291793e+00
1.0025531867604900e+00
1.0025229194631078e+00
1.0024918985275595e+00
1.0024598423214872e+00
1.0024276396144585e+00
1.0023965644743675e+00
1.0023653894843740e+00
1.0023341356280044e+00
1.0023028600235948e+00
1.0022716016353266e+00
1.0022408046014291e+00
1.0022099676042888e+00
1.0021791077979247e+00
1.0021478756528801e+00
1.0021164444053661e+00
1.0020849913534238e+00
1.0020535141131650e+00
1.0020220116001892e+00
1.0019904842002261e+00
1.0019589321666695e+00
1.0019273566332314e+00
1.0018957542062232e+00
1.0018641248374980e+00
1.0018324699643957e+00
1.0018007901234096e+00
1.0017690855717354e+00
1.0017373566317842e+00
1.0017056042434134e+00
1.0016738290736025e+00
1.0016420308287342e+00
1.0016102104749434e+00
1.0015783680158978e+00
1.0015465039388705e+00
1.0015146191351960e+00
1.0014827138543598e+00
1.0014507882958132e+00
1.0014188429054112e+00
1.0013868782764563e+00
1.0013548946463930e+00
1.0013228924540727e+00
1.0012908723094860e+00
1.0012588345826705e+00
1.0012267795528405e+00
1.0011947077090919e+00
1.0011626194811742e+00
1.0011305152168188e+00
1.0010983953879813e+00
1.0010662603554381e+00
1.0010341105357043e+00
1.0010019463694531e+00
1.0009697683018177e+00
1.0009375766972151e+00
1.0009053720012158e+00
1.0008731546013094e+00
1.0008409249939212e+00
1.0008086835321444e+00
1.0007764306432057e+00
1.0007441667911630e+00
1.0007118922757596e+00
1.0006796079239417e+00
1.0006473135992000e+00
1.0006150098326207e+00
1.0005826970936613e+00
1.0005503759970860e+00
1.0005180469601904e+00
1.0004857096938018e+00
1.0004533649918381e+00
1.0004210127397584e+00
1.0003886550453960e+00
1.0003562911531303e+00
1.0003239220116371e+00
1.0002915464311002e+00
1.0002591661041578e+00
1.0002267812067560e+00
1.0001943925245931e+00
1.0001620003702014e+00
1.0001296049961119e+00
1.0000972068340741e+00
1.0000648066143181e+00
1.0000324050661309e+00
1.0000000011470587e+00


SCALARS iters float
LOOKUP_TABLE default
4.0000000000000000e+00
4.0000000000000000e+00
4.0000000000000000e+00
4.0000000000000000e+00
4.0000000000000000e+00
4.0000000000000000e+00
4.0000000000000000e+00
4.0000000000000000e+00
4.0000000000000000e+00
4.0000000000000000e+00
4.0000000000000000e+00
4.0000000000000000e+00
4.0000000000000000e+00
4.0000000000000000e+00
4.0000000000000000e+00
4.0000000000000000e+00
4.0000000000000000e+00
4.0000000000000000e+00
4.0000000000000000e+00
4.0000000000000000e+00
4.0000000000000000e+00
4.0000000000000000e+00
4.0000000000000000e+00
4.0000000000000000e+00
4.0000000000000000e+00
4.0000000000000000e+00
4.0000000000000000e+00
4.0000000000000000e+00
4.0000000000000000e+00
4.0000000000000000e+00
4.0000000000000000e+00
4.0000000000000000e+00
4.0000000000000000e+00
4.0000000000000000e+00
4.0000000000000000e+00
4.0000000000000000e+00
4.0000000000000000e+00
4.0000000000000000e+00
4.0000000000000000e+00
4.0000000000000000e+00
4.0000000000000000e+00
4.0000000000000000e+00
4.0000000000000000e+00
4.0000000000000000e+00
4.0000000000000000e+00
4.0000000000000000e+00
4.0000000000000000e+00
4.0000000000000000e+00
4.0000000000000000e+00
4.0000000000000000e+00
4.0000000000000000e+00
4.0000000000000000e+00
4.0000000000000000e+00
4.0000000000000000e+00
4.0000000000000000e+00
4.0000000000000000e+00
4.0000000000000000e+00
4.0000000000000000e+00
4.0000000000000000e+00
4.0000000000000000e+00
4.0000000000000000e+00
4.0000000000000000e+00
4.0000000000000000e+00
4.0000000000000000e+00
4.0000000000000000e+00
4.0000000000000000e+00
4.0000000000000000e+00
4.0000000000000000e+00
4.0000000000000000e+00
4.0000000000000000e+00
4.0000000000000000e+00
4.0000000000000000e+00
4.0000000000000000e+00
4.0000000000000000e+00
4.0000000000000000e+00
4.0000000000000000e+00
4.0000000000000000e+00
4.0000000000000000e+00
4.0000000000000000e+00
4.0000000000000000e+00
4.0000000000000000e+00
4.0000000000000000e+00
4.0000000000000000e+00
4.0000000000000000e+00
4.0000000000000000e+00
4.0000000000000000e+00
4.0000000000000000e+00
4.0000000000000000e+00
4.0000000000000000e+00
4.0000000000000000e+00
4.0000000000000000e+00
4.0000000000000000e+00
4.0000000000000000e+00
4.0000000000000000e+00
4.0000000000000000e+00
4.0000000000000000e+00
4.0000000000000000e+00
4.0000000000000000e+00
4.0000000000000000e+00
4.0000000000000000e+00
4.0000000000000000e+00


