# vtk DataFile Version 2.0

ASCII

DATASET UNSTRUCTURED_GRID

POINTS 101 float

0.0000000000000000e+00 0.0000000000000000e+00 0.0000000000000000e+00
1.0000000000000001e-01 0.0000000000000000e+00 0.0000000000000000e+00
2.0000000000000001e-01 0.0000000000000000e+00 0.0000000000000000e+00
3.0000000000000004e-01 0.0000000000000000e+00 0.0000000000000000e+00
4.0000000000000002e-01 0.0000000000000000e+00 0.0000000000000000e+00
5.0000000000000000e-01 0.0000000000000000e+00 0.0000000000000000e+00
6.0000000000000009e-01 0.0000000000000000e+00 0.0000000000000000e+00
7.0000000000000007e-01 0.0000000000000000e+00 0.0000000000000000e+00
8.0000000000000004e-01 0.0000000000000000e+00 0.0000000000000000e+00
9.0000000000000002e-01 0.0000000000000000e+00 0.0000000000000000e+00
1.0000000000000000e+00 0.0000000000000000e+00 0.0000000000000000e+00
1.1000000000000001e+00 0.0000000000000000e+00 0.0000000000000000e+00
1.2000000000000002e+00 0.0000000000000000e+00 0.0000000000000000e+00
1.3000000000000000e+00 0.0000000000000000e+00 0.0000000000000000e+00
1.4000000000000001e+00 0.0000000000000000e+00 0.0000000000000000e+00
1.5000000000000000e+00 0.0000000000000000e+00 0.0000000000000000e+00
1.6000000000000001e+00 0.0000000000000000e+00 0.0000000000000000e+00
1.7000000000000002e+00 0.0000000000000000e+00 0.0000000000000000e+00
1.8000000000000000e+00 0.0000000000000000e+00 0.0000000000000000e+00
1.9000000000000001e+00 0.0000000000000000e+00 0.0000000000000000e+00
2.0000000000000000e+00 0.0000000000000000e+00 0.0000000000000000e+00
2.1000000000000001e+00 0.0000000000000000e+00 0.0000000000000000e+00
2.2000000000000002e+00 0.0000000000000000e+00 0.0000000000000000e+00
2.3000000000000003e+00 0.0000000000000000e+00 0.0000000000000000e+00
2.4000000000000004e+00 0.0000000000000000e+00 0.0000000000000000e+00
2.5000000000000000e+00 0.0000000000000000e+00 0.0000000000000000e+00
2.6000000000000001e+00 0.0000000000000000e+00 0.0000000000000000e+00
2.7000000000000002e+00 0.0000000000000000e+00 0.0000000000000000e+00
2.8000000000000003e+00 0.0000000000000000e+00 0.0000000000000000e+00
2.9000000000000004e+00 0.0000000000000000e+00 0.0000000000000000e+00
3.0000000000000000e+00 0.0000000000000000e+00 0.0000000000000000e+00
3.1000000000000001e+00 0.0000000000000000e+00 0.0000000000000000e+00
3.2000000000000002e+00 0.0000000000000000e+00 0.0000000000000000e+00
3.3000000000000003e+00 0.0000000000000000e+00 0.0000000000000000e+00
3.4000000000000004e+00 0.0000000000000000e+00 0.0000000000000000e+00
3.5000000000000000e+00 0.0000000000000000e+00 0.0000000000000000e+00
3.6000000000000001e+00 0.0000000000000000e+00 0.0000000000000000e+00
3.7000000000000002e+00 0.0000000000000000e+00 0.0000000000000000e+00
3.8000000000000003e+00 0.0000000000000000e+00 0.0000000000000000e+00
3.9000000000000004e+00 0.0000000000000000e+00 0.0000000000000000e+00
4.0000000000000000e+00 0.0000000000000000e+00 0.0000000000000000e+00
4.1000000000000005e+00 0.0000000000000000e+00 0.0000000000000000e+00
4.2000000000000002e+00 0.0000000000000000e+00 0.0000000000000000e+00
4.2999999999999998e+00 0.0000000000000000e+00 0.0000000000000000e+00
4.4000000000000004e+00 0.0000000000000000e+00 0.0000000000000000e+00
4.5000000000000000e+00 0.0000000000000000e+00 0.0000000000000000e+00
4.6000000000000005e+00 0.0000000000000000e+00 0.0000000000000000e+00
4.7000000000000002e+00 0.0000000000000000e+00 0.0000000000000000e+00
4.8000000000000007e+00 0.0000000000000000e+00 0.0000000000000000e+00
4.9000000000000004e+00 0.0000000000000000e+00 0.0000000000000000e+00
5.0000000000000000e+00 0.0000000000000000e+00 0.0000000000000000e+00
5.1000000000000005e+00 0.0000000000000000e+00 0.0000000000000000e+00
5.2000000000000002e+00 0.0000000000000000e+00 0.0000000000000000e+00
5.3000000000000007e+00 0.0000000000000000e+00 0.0000000000000000e+00
5.4000000000000004e+00 0.0000000000000000e+00 0.0000000000000000e+00
5.5000000000000000e+00 0.0000000000000000e+00 0.0000000000000000e+00
5.6000000000000005e+00 0.0000000000000000e+00 0.0000000000000000e+00
5.7000000000000002e+00 0.0000000000000000e+00 0.0000000000000000e+00
5.8000000000000007e+00 0.0000000000000000e+00 0.0000000000000000e+00
5.9000000000000004e+00 0.0000000000000000e+00 0.0000000000000000e+00
6.0000000000000000e+00 0.0000000000000000e+00 0.0000000000000000e+00
6.1000000000000005e+00 0.0000000000000000e+00 0.0000000000000000e+00
6.2000000000000002e+00 0.0000000000000000e+00 0.0000000000000000e+00
6.3000000000000007e+00 0.0000000000000000e+00 0.0000000000000000e+00
6.4000000000000004e+00 0.0000000000000000e+00 0.0000000000000000e+00
6.5000000000000000e+00 0.0000000000000000e+00 0.0000000000000000e+00
6.6000000000000005e+00 0.0000000000000000e+00 0.0000000000000000e+00
6.7000000000000002e+00 0.0000000000000000e+00 0.0000000000000000e+00
6.8000000000000007e+00 0.0000000000000000e+00 0.0000000000000000e+00
6.9000000000000004e+00 0.0000000000000000e+00 0.0000000000000000e+00
7.0000000000000000e+00 0.0000000000000000e+00 0.0000000000000000e+00
7.1000000000000005e+00 0.0000000000000000e+00 0.0000000000000000e+00
7.2000000000000002e+00 0.0000000000000000e+00 0.0000000000000000e+00
7.3000000000000007e+00 0.0000000000000000e+00 0.0000000000000000e+00
7.4000000000000004e+00 0.0000000000000000e+00 0.0000000000000000e+00
7.5000000000000000e+00 0.0000000000000000e+00 0.0000000000000000e+00
7.6000000000000005e+00 0.0000000000000000e+00 0.0000000000000000e+00
7.7000000000000002e+00 0.0000000000000000e+00 0.0000000000000000e+00
7.8000000000000007e+00 0.0000000000000000e+00 0.0000000000000000e+00
7.9000000000000004e+00 0.0000000000000000e+00 0.0000000000000000e+00
8.0000000000000000e+00 0.0000000000000000e+00 0.0000000000000000e+00
8.0999999999999996e+00 0.0000000000000000e+00 0.0000000000000000e+00
8.2000000000000011e+00 0.0000000000000000e+00 0.0000000000000000e+00
8.3000000000000007e+00 0.0000000000000000e+00 0.0000000000000000e+00
8.4000000000000004e+00 0.0000000000000000e+00 0.0000000000000000e+00
8.5000000000000000e+00 0.0000000000000000e+00 0.0000000000000000e+00
8.5999999999999996e+00 0.0000000000000000e+00 0.0000000000000000e+00
8.7000000000000011e+00 0.0000000000000000e+00 0.0000000000000000e+00
8.8000000000000007e+00 0.0000000000000000e+00 0.0000000000000000e+00
8.9000000000000004e+00 0.0000000000000000e+00 0.0000000000000000e+00
9.0000000000000000e+00 0.0000000000000000e+00 0.0000000000000000e+00
9.0999999999999996e+00 0.0000000000000000e+00 0.0000000000000000e+00
9.2000000000000011e+00 0.0000000000000000e+00 0.0000000000000000e+00
9.3000000000000007e+00 0.0000000000000000e+00 0.0000000000000000e+00
9.4000000000000004e+00 0.0000000000000000e+00 0.0000000000000000e+00
9.5000000000000000e+00 0.0000000000000000e+00 0.0000000000000000e+00
9.6000000000000014e+00 0.0000000000000000e+00 0.0000000000000000e+00
9.7000000000000011e+00 0.0000000000000000e+00 0.0000000000000000e+00
9.8000000000000007e+00 0.0000000000000000e+00 0.0000000000000000e+00
9.9000000000000004e+00 0.0000000000000000e+00 0.0000000000000000e+00
1.0000000000000000e+01 0.0000000000000000e+00 0.0000000000000000e+00

POINT_DATA 101

VECTORS velocity float
4.4977196808965614e+00 0.0000000000000000e+00 0.0000000000000000e+00
4.4966394553037459e+00 0.0000000000000000e+00 0.0000000000000000e+00
4.4956292701227527e+00 0.0000000000000000e+00 0.0000000000000000e+00
4.4946577112167834e+00 0.0000000000000000e+00 0.0000000000000000e+00
4.4937095925899770e+00 0.0000000000000000e+00 0.0000000000000000e+00
4.4927775673563630e+00 0.0000000000000000e+00 0.0000000000000000e+00
4.4918580756099793e+00 0.0000000000000000e+00 0.0000000000000000e+00
4.4909493870839556e+00 0.0000000000000000e+00 0.0000000000000000e+00
4.4900506556292150e+00 0.0000000000000000e+00 0.0000000000000000e+00
4.4891614624096974e+00 0.0000000000000000e+00 0.0000000000000000e+00
4.4882815952004691e+00 0.0000000000000000e+00 0.0000000000000000e+00
4.4874109417532830e+00 0.0000000000000000e+00 0.0000000000000000e+00
4.4865494382621680e+00 0.0000000000000000e+00 0.0000000000000000e+00
4.4856970444781634e+00 0.0000000000000000e+00 0.0000000000000000e+00
4.4848537316550869e+00 0.0000000000000000e+00 0.0000000000000000e+00
4.4840194767684354e+00 0.0000000000000000e+00 0.0000000000000000e+00
4.4831942596712162e+00 0.0000000000000000e+00 0.0000000000000000e+00
4.4823780617597180e+00 0.0000000000000000e+00 0.0000000000000000e+00
4.4815708653127526e+00 0.0000000000000000e+00 0.0000000000000000e+00
4.4807726531753245e+00 0.0000000000000000e+00 0.0000000000000000e+00
4.4799834086255901e+00 0.0000000000000000e+00 0.0000000000000000e+00
4.4792031152297813e+00 0.0000000000000000e+00 0.0000000000000000e+00
4.4784317570610721e+00 0.0000000000000000e+00 0.0000000000000000e+00
4.4776693183803289e+00 0.0000000000000000e+00 0.0000000000000000e+00
4.4769157836998277e+00 0.0000000000000000e+00 0.0000000000000000e+00
4.4761711377847648e+00 0.0000000000000000e+00 0.0000000000000000e+00
4.4754353656683543e+00 0.0000000000000000e+00 0.0000000000000000e+00
4.4747084526607539e+00 0.0000000000000000e+00 0.0000000000000000e+00
4.4739903843295696e+00 0.0000000000000000e+00 0.0000000000000000e+00
4.4732811465272695e+00 0.0000000000000000e+00 0.0000000000000000e+00
4.4725807253608849e+00 0.0000000000000000e+00 0.0000000000000000e+00
4.4718891072638414e+00 0.0000000000000000e+00 0.0000000000000000e+00
4.4712062788596532e+00 0.0000000000000000e+00 0.0000000000000000e+00
4.4705322270390040e+00 0.0000000000000000e+00 0.0000000000000000e+00
4.4698669390333006e+00 0.0000000000000000e+00 0.0000000000000000e+00
4.4692104023758219e+00 0.0000000000000000e+00 0.0000000000000000e+00
4.4685626049055536e+00 0.0000000000000000e+00 0.0000000000000000e+00
4.4679235347358173e+00 0.0000000000000000e+00 0.0000000000000000e+00
4.4672931803006124e+00 0.0000000000000000e+00 0.0000000000000000e+00
4.4666715302658906e+00 0.0000000000000000e+00 0.0000000000000000e+00
4.4660585736263938e+00 0.0000000000000000e+00 0.0000000000000000e+00
4.4654542996348612e+00 0.0000000000000000e+00 0.0000000000000000e+00
4.4648586978779248e+00 0.0000000000000000e+00 0.0000000000000000e+00
4.4642717581346156e+00 0.0000000000000000e+00 0.0000000000000000e+00
4.4636934704829159e+00 0.0000000000000000e+00 0.0000000000000000e+00
4.4631238255068704e+00 0.0000000000000000e+00 0.0000000000000000e+00
4.4625628136796047e+00 0.0000000000000000e+00 0.0000000000000000e+00
4.4620104262527667e+00 0.0000000000000000e+00 0.0000000000000000e+00
4.4614666549135595e+00 0.0000000000000000e+00 0.0000000000000000e+00
4.4609314909190552e+00 0.0000000000000000e+00 0.0000000000000000e+00
4.4604049246331225e+00 0.0000000000000000e+00 0.0000000000000000e+00
4.4598869474446303e+00 0.0000000000000000e+00 0.0000000000000000e+00
4.4593775512334561e+00 0.0000000000000000e+00 0.0000000000000000e+00
4.4588767282886455e+00 0.0000000000000000e+00 0.0000000000000000e+00
4.4583844728163422e+00 0.0000000000000000e+00 0.0000000000000000e+00
4.4579007783363664e+00 0.0000000000000000e+00 0.0000000000000000e+00
4.4574256389914275e+00 0.0000000000000000e+00 0.0000000000000000e+00
4.4569590480183381e+00 0.0000000000000000e+00 0.0000000000000000e+00
4.4565009991821034e+00 0.0000000000000000e+00 0.0000000000000000e+00
4.4560514859018543e+00 0.0000000000000000e+00 0.0000000000000000e+00
4.4556105045851648e+00 0.0000000000000000e+00 0.0000000000000000e+00
4.4551780546107000e+00 0.0000000000000000e+00 0.0000000000000000e+00
4.4547541305149378e+00 0.0000000000000000e+00 0.0000000000000000e+00
4.4543387278311632e+00 0.0000000000000000e+00 0.0000000000000000e+00
4.4539318408295205e+00 0.0000000000000000e+00 0.0000000000000000e+00
4.4535334612304478e+00 0.0000000000000000e+00 0.0000000000000000e+00
4.4531435851196646e+00 0.0000000000000000e+00 0.0000000000000000e+00
4.4527622106307536e+00 0.0000000000000000e+00 0.0000000000000000e+00
4.4523893352508948e+00 0.0000000000000000e+00 0.0000000000000000e+00
4.4520249565397529e+00 0.0000000000000000e+00 0.0000000000000000e+00
4.4516690722586523e+00 0.0000000000000000e+00 0.0000000000000000e+00
4.4513216803858144e+00 0.0000000000000000e+00 0.0000000000000000e+00
4.4509827792743151e+00 0.0000000000000000e+00 0.0000000000000000e+00
4.4506523673418172e+00 0.0000000000000000e+00 0.0000000000000000e+00
4.4503304449626491e+00 0.0000000000000000e+00 0.0000000000000000e+00
4.4500170132241275e+00 0.0000000000000000e+00 0.0000000000000000e+00
4.4497120700222998e+00 0.0000000000000000e+00 0.0000000000000000e+00
4.4494156108093366e+00 0.0000000000000000e+00 0.0000000000000000e+00
4.4491276374492843e+00 0.0000000000000000e+00 0.0000000000000000e+00
4.4488481510224229e+00 0.0000000000000000e+00 0.0000000000000000e+00
4.4485771526004143e+00 0.0000000000000000e+00 0.0000000000000000e+00
4.4483146418728801e+00 0.0000000000000000e+00 0.0000000000000000e+00
4.4480606229252970e+00 0.0000000000000000e+00 0.0000000000000000e+00
4.4478150912395362e+00 0.0000000000000000e+00 0.0000000000000000e+00
4.4475780602834254e+00 0.0000000000000000e+00 0.0000000000000000e+00
4.4473495222503789e+00 0.0000000000000000e+00 0.0000000000000000e+00
4.4471294798430199e+00 0.0000000000000000e+00 0.0000000000000000e+00
4.4469179385687152e+00 0.0000000000000000e+00 0.0000000000000000e+00
4.4467149004892299e+00 0.0000000000000000e+00 0.0000000000000000e+00
4.4465203703020171e+00 0.0000000000000000e+00 0.0000000000000000e+00
4.4463343533319541e+00 0.0000000000000000e+00 0.0000000000000000e+00
4.4461568531591666e+00 0.0000000000000000e+00 0.0000000000000000e+00
4.4459878691822334e+00 0.0000000000000000e+00 0.0000000000000000e+00
4.4458274156178552e+00 0.0000000000000000e+00 0.0000000000000000e+00
4.4456754650493711e+00 0.0000000000000000e+00 0.0000000000000000e+00
4.4455321053756141e+00 0.0000000000000000e+00 0.0000000000000000e+00
4.4453971138075419e+00 0.0000000000000000e+00 0.0000000000000000e+00
4.4452711052505318e+00 0.0000000000000000e+00 0.0000000000000000e+00
4.4451524504209843e+00 0.0000000000000000e+00 0.0000000000000000e+00
4.4450455726568761e+00 0.0000000000000000e+00 0.0000000000000000e+00
4.4449386948927678e+00 0.0000000000000000e+00 0.0000000000000000e+00


SCALARS pressure float
LOOKUP_TABLE default
-2.0644860626675836e+01
-2.0456262154833418e+01
-2.0267663682991000e+01
-2.0078758479568609e+01
-1.9889401879080193e+01
-1.9699527508096654e+01
-1.9509106817132128e+01
-1.9318129530992529e+01
-1.9126594203919247e+01
-1.8934503656330360e+01
-1.8741862769858905e+01
-1.8548677421940219e+01
-1.8354953971033410e+01
-1.8160699007878009e+01
-1.7965919235387524e+01
-1.7770621410536936e+01
-1.7574812316490256e+01
-1.7378498748909099e+01
-1.7181687509568963e+01
-1.6984385403230768e+01
-1.6786599236176258e+01
-1.6588335815564292e+01
-1.6389601949228066e+01
-1.6190404446638823e+01
-1.5990750117118138e+01
-1.5790645770070750e+01
-1.5590098215087949e+01
-1.5389114262095459e+01
-1.5187700721431902e+01
-1.4985864403845520e+01
-1.4783612120642903e+01
-1.4580950683673715e+01
-1.4377886905520752e+01
-1.4174427598808252e+01
-1.3970579576836922e+01
-1.3766349654139505e+01
-1.3561744646402326e+01
-1.3356771370415178e+01
-1.3151436644032138e+01
-1.2945747286227586e+01
-1.2739710117159783e+01
-1.2533331958173804e+01
-1.2326619631709937e+01
-1.2119579961572077e+01
-1.1912219772356826e+01
-1.1704545890502448e+01
-1.1496565144879563e+01
-1.1288284363793924e+01
-1.1079710379232258e+01
-1.0870850026188940e+01
-1.0661710136394436e+01
-1.0452297535061970e+01
-1.0242619051441750e+01
-1.0032681518127090e+01
-9.8224917740159761e+00
-9.6120566711180295e+00
-9.4013830598705841e+00
-9.1904777920483056e+00
-8.9793477135323911e+00
-8.7679996710228085e+00
-8.5564405104781187e+00
-8.3446770920835256e+00
-8.1327162942078886e+00
-7.9205649794522515e+00
-7.7082300138387412e+00
-7.4957182588479556e+00
-7.2830365629495635e+00
-7.0701917911073648e+00
-6.8571908207003958e+00
-6.6440405297764169e+00
-6.4307477983710921e+00
-6.2173195090675701e+00
-6.0037625471978719e+00
-5.7900838015088301e+00
-5.5762901676438572e+00
-5.3623885578649952e+00
-5.1483858842091239e+00
-4.9342890291897987e+00
-4.7201048677235988e+00
-4.5058403161430549e+00
-4.2915022894012713e+00
-4.0770977080336888e+00
-3.8626334894148542e+00
-3.6481165648280340e+00
-3.4335538485293218e+00
-3.2189523278507601e+00
-3.0043188773141365e+00
-2.7896604421981457e+00
-2.5749839670367809e+00
-2.3602964018888080e+00
-2.1456047082466059e+00
-1.9309158536020583e+00
-1.7162368018932175e+00
-1.5015744958794037e+00
-1.2869359418774462e+00
-1.0723279647128563e+00
-8.5775789434425731e-01
-6.4323172222600400e-01
-4.2875904746627780e-01
-2.1433985232695052e-01
0.0000000000000000e+00


SCALARS diameter float
LOOKUP_TABLE default
9.9813897706234900e-01
9.9815595536349655e-01
9.9817293406456697e-01
9.9818994078040291e-01
9.9820698853783685e-01
9.9822408331582047e-01
9.9824122768856560e-01
9.9825842258516662e-01
9.9827566813993607e-01
9.9829296410289126e-01
9.9831031003849291e-01
9.9832770542156324e-01
9.9834514968357690e-01
9.9836264223510451e-01
9.9838018247646498e-01
9.9839776980334516e-01
9.9841540360851744e-01
9.9843308328411462e-01
9.9845080822147469e-01
9.9846857781173604e-01
9.9848639144543805e-01
9.9850424851386721e-01
9.9852214840786202e-01
9.9854009051761305e-01
9.9855807423379872e-01
9.9857609894673649e-01
9.9859416404677082e-01
9.9861226892446731e-01
9.9863041297000665e-01
9.9864859557360175e-01
9.9866681612573061e-01
9.9868507401601259e-01
9.9870336863436382e-01
9.9872169937079680e-01
9.9874006561514428e-01
9.9875846675713709e-01
9.9877690218628623e-01
9.9879537129206086e-01
9.9881387346368777e-01
9.9883240809025386e-01
9.9885097456095007e-01
9.9886957226441142e-01
9.9888820058946581e-01
9.9890685892360231e-01
9.9892554665786581e-01
9.9894426318043739e-01
9.9896300787528924e-01
9.9898178013353689e-01
9.9900057906518125e-01
9.9901940434278313e-01
9.9903825557201176e-01
9.9905713212986125e-01
9.9907603338955508e-01
9.9909495872785237e-01
9.9911390752003737e-01
9.9913287913699422e-01
9.9915187295197738e-01
9.9917088833422230e-01
9.9918992465661427e-01
9.9920898129142444e-01
9.9922805760996314e-01
9.9924715082413929e-01
9.9926626158607557e-01
9.9928538971303327e-01
9.9930453462775670e-01
9.9932369763286111e-01
9.9934287756252782e-01
9.9936207277141564e-01
9.9938128263716641e-01
9.9940050653730128e-01
9.9941974384863352e-01
9.9943899394801783e-01
9.9945825621161322e-01
9.9947753001331596e-01
9.9949681473301899e-01
9.9951610974881622e-01
9.9953541441792781e-01
9.9955472812106572e-01
9.9957405024378154e-01
9.9959338015322563e-01
9.9961271722249279e-01
9.9963206082309286e-01
9.9965141032687799e-01
9.9967076509895381e-01
9.9969012453810280e-01
9.9970948796544001e-01
9.9972885478803331e-01
9.9974822436689248e-01
9.9976759606931587e-01
9.9978696926595967e-01
9.9980634223651843e-01
9.9982571567513434e-01
9.9984508933452332e-01
9.9986446263580797e-01
9.9988383499635280e-01
9.9990320584987114e-01
9.9992257458468725e-01
9.9994194070944498e-01
9.9996130215985235e-01
9.9998065249454393e-01
9.9999999362046976e-01


SCALARS iters float
LOOKUP_TABLE default
4.0000000000000000e+00
4.0000000000000000e+00
4.0000000000000000e+00
4.0000000000000000e+00
4.0000000000000000e+00
4.0000000000000000e+00
4.0000000000000000e+00
4.0000000000000000e+00
4.0000000000000000e+00
4.0000000000000000e+00
4.0000000000000000e+00
4.0000000000000000e+00
4.0000000000000000e+00
4.0000000000000000e+00
4.0000000000000000e+00
4.0000000000000000e+00
4.0000000000000000e+00
4.0000000000000000e+00
4.0000000000000000e+00
4.0000000000000000e+00
4.0000000000000000e+00
4.0000000000000000e+00
4.0000000000000000e+00
4.0000000000000000e+00
4.0000000000000000e+00
4.0000000000000000e+00
4.0000000000000000e+00
4.0000000000000000e+00
4.0000000000000000e+00
4.0000000000000000e+00
4.0000000000000000e+00
4.0000000000000000e+00
4.0000000000000000e+00
4.0000000000000000e+00
4.0000000000000000e+00
4.0000000000000000e+00
4.0000000000000000e+00
4.0000000000000000e+00
4.0000000000000000e+00
4.0000000000000000e+00
4.0000000000000000e+00
4.0000000000000000e+00
4.0000000000000000e+00
4.0000000000000000e+00
4.0000000000000000e+00
4.0000000000000000e+00
4.0000000000000000e+00
4.0000000000000000e+00
4.0000000000000000e+00
4.0000000000000000e+00
4.0000000000000000e+00
4.0000000000000000e+00
4.0000000000000000e+00
4.0000000000000000e+00
4.0000000000000000e+00
4.0000000000000000e+00
4.0000000000000000e+00
4.0000000000000000e+00
4.0000000000000000e+00
4.0000000000000000e+00
4.0000000000000000e+00
4.0000000000000000e+00
4.0000000000000000e+00
4.0000000000000000e+00
4.0000000000000000e+00
4.0000000000000000e+00
4.0000000000000000e+00
4.0000000000000000e+00
4.0000000000000000e+00
4.0000000000000000e+00
4.0000000000000000e+00
4.0000000000000000e+00
4.0000000000000000e+00
4.0000000000000000e+00
4.0000000000000000e+00
4.0000000000000000e+00
4.0000000000000000e+00
4.0000000000000000e+00
4.0000000000000000e+00
4.0000000000000000e+00
4.0000000000000000e+00
4.0000000000000000e+00
4.0000000000000000e+00
4.0000000000000000e+00
4.0000000000000000e+00
4.0000000000000000e+00
4.0000000000000000e+00
4.0000000000000000e+00
4.0000000000000000e+00
4.0000000000000000e+00
4.0000000000000000e+00
4.0000000000000000e+00
4.0000000000000000e+00
4.0000000000000000e+00
4.0000000000000000e+00
4.0000000000000000e+00
4.0000000000000000e+00
4.0000000000000000e+00
4.0000000000000000e+00
4.0000000000000000e+00
4.0000000000000000e+00


