# vtk DataFile Version 2.0

ASCII

DATASET UNSTRUCTURED_GRID

POINTS 101 float

0.0000000000000000e+00 0.0000000000000000e+00 0.0000000000000000e+00
1.0000000000000001e-01 0.0000000000000000e+00 0.0000000000000000e+00
2.0000000000000001e-01 0.0000000000000000e+00 0.0000000000000000e+00
3.0000000000000004e-01 0.0000000000000000e+00 0.0000000000000000e+00
4.0000000000000002e-01 0.0000000000000000e+00 0.0000000000000000e+00
5.0000000000000000e-01 0.0000000000000000e+00 0.0000000000000000e+00
6.0000000000000009e-01 0.0000000000000000e+00 0.0000000000000000e+00
7.0000000000000007e-01 0.0000000000000000e+00 0.0000000000000000e+00
8.0000000000000004e-01 0.0000000000000000e+00 0.0000000000000000e+00
9.0000000000000002e-01 0.0000000000000000e+00 0.0000000000000000e+00
1.0000000000000000e+00 0.0000000000000000e+00 0.0000000000000000e+00
1.1000000000000001e+00 0.0000000000000000e+00 0.0000000000000000e+00
1.2000000000000002e+00 0.0000000000000000e+00 0.0000000000000000e+00
1.3000000000000000e+00 0.0000000000000000e+00 0.0000000000000000e+00
1.4000000000000001e+00 0.0000000000000000e+00 0.0000000000000000e+00
1.5000000000000000e+00 0.0000000000000000e+00 0.0000000000000000e+00
1.6000000000000001e+00 0.0000000000000000e+00 0.0000000000000000e+00
1.7000000000000002e+00 0.0000000000000000e+00 0.0000000000000000e+00
1.8000000000000000e+00 0.0000000000000000e+00 0.0000000000000000e+00
1.9000000000000001e+00 0.0000000000000000e+00 0.0000000000000000e+00
2.0000000000000000e+00 0.0000000000000000e+00 0.0000000000000000e+00
2.1000000000000001e+00 0.0000000000000000e+00 0.0000000000000000e+00
2.2000000000000002e+00 0.0000000000000000e+00 0.0000000000000000e+00
2.3000000000000003e+00 0.0000000000000000e+00 0.0000000000000000e+00
2.4000000000000004e+00 0.0000000000000000e+00 0.0000000000000000e+00
2.5000000000000000e+00 0.0000000000000000e+00 0.0000000000000000e+00
2.6000000000000001e+00 0.0000000000000000e+00 0.0000000000000000e+00
2.7000000000000002e+00 0.0000000000000000e+00 0.0000000000000000e+00
2.8000000000000003e+00 0.0000000000000000e+00 0.0000000000000000e+00
2.9000000000000004e+00 0.0000000000000000e+00 0.0000000000000000e+00
3.0000000000000000e+00 0.0000000000000000e+00 0.0000000000000000e+00
3.1000000000000001e+00 0.0000000000000000e+00 0.0000000000000000e+00
3.2000000000000002e+00 0.0000000000000000e+00 0.0000000000000000e+00
3.3000000000000003e+00 0.0000000000000000e+00 0.0000000000000000e+00
3.4000000000000004e+00 0.0000000000000000e+00 0.0000000000000000e+00
3.5000000000000000e+00 0.0000000000000000e+00 0.0000000000000000e+00
3.6000000000000001e+00 0.0000000000000000e+00 0.0000000000000000e+00
3.7000000000000002e+00 0.0000000000000000e+00 0.0000000000000000e+00
3.8000000000000003e+00 0.0000000000000000e+00 0.0000000000000000e+00
3.9000000000000004e+00 0.0000000000000000e+00 0.0000000000000000e+00
4.0000000000000000e+00 0.0000000000000000e+00 0.0000000000000000e+00
4.1000000000000005e+00 0.0000000000000000e+00 0.0000000000000000e+00
4.2000000000000002e+00 0.0000000000000000e+00 0.0000000000000000e+00
4.2999999999999998e+00 0.0000000000000000e+00 0.0000000000000000e+00
4.4000000000000004e+00 0.0000000000000000e+00 0.0000000000000000e+00
4.5000000000000000e+00 0.0000000000000000e+00 0.0000000000000000e+00
4.6000000000000005e+00 0.0000000000000000e+00 0.0000000000000000e+00
4.7000000000000002e+00 0.0000000000000000e+00 0.0000000000000000e+00
4.8000000000000007e+00 0.0000000000000000e+00 0.0000000000000000e+00
4.9000000000000004e+00 0.0000000000000000e+00 0.0000000000000000e+00
5.0000000000000000e+00 0.0000000000000000e+00 0.0000000000000000e+00
5.1000000000000005e+00 0.0000000000000000e+00 0.0000000000000000e+00
5.2000000000000002e+00 0.0000000000000000e+00 0.0000000000000000e+00
5.3000000000000007e+00 0.0000000000000000e+00 0.0000000000000000e+00
5.4000000000000004e+00 0.0000000000000000e+00 0.0000000000000000e+00
5.5000000000000000e+00 0.0000000000000000e+00 0.0000000000000000e+00
5.6000000000000005e+00 0.0000000000000000e+00 0.0000000000000000e+00
5.7000000000000002e+00 0.0000000000000000e+00 0.0000000000000000e+00
5.8000000000000007e+00 0.0000000000000000e+00 0.0000000000000000e+00
5.9000000000000004e+00 0.0000000000000000e+00 0.0000000000000000e+00
6.0000000000000000e+00 0.0000000000000000e+00 0.0000000000000000e+00
6.1000000000000005e+00 0.0000000000000000e+00 0.0000000000000000e+00
6.2000000000000002e+00 0.0000000000000000e+00 0.0000000000000000e+00
6.3000000000000007e+00 0.0000000000000000e+00 0.0000000000000000e+00
6.4000000000000004e+00 0.0000000000000000e+00 0.0000000000000000e+00
6.5000000000000000e+00 0.0000000000000000e+00 0.0000000000000000e+00
6.6000000000000005e+00 0.0000000000000000e+00 0.0000000000000000e+00
6.7000000000000002e+00 0.0000000000000000e+00 0.0000000000000000e+00
6.8000000000000007e+00 0.0000000000000000e+00 0.0000000000000000e+00
6.9000000000000004e+00 0.0000000000000000e+00 0.0000000000000000e+00
7.0000000000000000e+00 0.0000000000000000e+00 0.0000000000000000e+00
7.1000000000000005e+00 0.0000000000000000e+00 0.0000000000000000e+00
7.2000000000000002e+00 0.0000000000000000e+00 0.0000000000000000e+00
7.3000000000000007e+00 0.0000000000000000e+00 0.0000000000000000e+00
7.4000000000000004e+00 0.0000000000000000e+00 0.0000000000000000e+00
7.5000000000000000e+00 0.0000000000000000e+00 0.0000000000000000e+00
7.6000000000000005e+00 0.0000000000000000e+00 0.0000000000000000e+00
7.7000000000000002e+00 0.0000000000000000e+00 0.0000000000000000e+00
7.8000000000000007e+00 0.0000000000000000e+00 0.0000000000000000e+00
7.9000000000000004e+00 0.0000000000000000e+00 0.0000000000000000e+00
8.0000000000000000e+00 0.0000000000000000e+00 0.0000000000000000e+00
8.0999999999999996e+00 0.0000000000000000e+00 0.0000000000000000e+00
8.2000000000000011e+00 0.0000000000000000e+00 0.0000000000000000e+00
8.3000000000000007e+00 0.0000000000000000e+00 0.0000000000000000e+00
8.4000000000000004e+00 0.0000000000000000e+00 0.0000000000000000e+00
8.5000000000000000e+00 0.0000000000000000e+00 0.0000000000000000e+00
8.5999999999999996e+00 0.0000000000000000e+00 0.0000000000000000e+00
8.7000000000000011e+00 0.0000000000000000e+00 0.0000000000000000e+00
8.8000000000000007e+00 0.0000000000000000e+00 0.0000000000000000e+00
8.9000000000000004e+00 0.0000000000000000e+00 0.0000000000000000e+00
9.0000000000000000e+00 0.0000000000000000e+00 0.0000000000000000e+00
9.0999999999999996e+00 0.0000000000000000e+00 0.0000000000000000e+00
9.2000000000000011e+00 0.0000000000000000e+00 0.0000000000000000e+00
9.3000000000000007e+00 0.0000000000000000e+00 0.0000000000000000e+00
9.4000000000000004e+00 0.0000000000000000e+00 0.0000000000000000e+00
9.5000000000000000e+00 0.0000000000000000e+00 0.0000000000000000e+00
9.6000000000000014e+00 0.0000000000000000e+00 0.0000000000000000e+00
9.7000000000000011e+00 0.0000000000000000e+00 0.0000000000000000e+00
9.8000000000000007e+00 0.0000000000000000e+00 0.0000000000000000e+00
9.9000000000000004e+00 0.0000000000000000e+00 0.0000000000000000e+00
1.0000000000000000e+01 0.0000000000000000e+00 0.0000000000000000e+00

POINT_DATA 101

VECTORS velocity float
6.3161480920622681e+00 0.0000000000000000e+00 0.0000000000000000e+00
6.3160900702428835e+00 0.0000000000000000e+00 0.0000000000000000e+00
6.3160498690075659e+00 0.0000000000000000e+00 0.0000000000000000e+00
6.3160189919883027e+00 0.0000000000000000e+00 0.0000000000000000e+00
6.3159942581228492e+00 0.0000000000000000e+00 0.0000000000000000e+00
6.3159732852492620e+00 0.0000000000000000e+00 0.0000000000000000e+00
6.3159589495782438e+00 0.0000000000000000e+00 0.0000000000000000e+00
6.3159459571040912e+00 0.0000000000000000e+00 0.0000000000000000e+00
6.3159266045633657e+00 0.0000000000000000e+00 0.0000000000000000e+00
6.3159015474469031e+00 0.0000000000000000e+00 0.0000000000000000e+00
6.3158728845036869e+00 0.0000000000000000e+00 0.0000000000000000e+00
6.3158414545476704e+00 0.0000000000000000e+00 0.0000000000000000e+00
6.3158102179305784e+00 0.0000000000000000e+00 0.0000000000000000e+00
6.3157821373644705e+00 0.0000000000000000e+00 0.0000000000000000e+00
6.3157555436413206e+00 0.0000000000000000e+00 0.0000000000000000e+00
6.3157306707046654e+00 0.0000000000000000e+00 0.0000000000000000e+00
6.3157021137461991e+00 0.0000000000000000e+00 0.0000000000000000e+00
6.3156653503819671e+00 0.0000000000000000e+00 0.0000000000000000e+00
6.3156273095049311e+00 0.0000000000000000e+00 0.0000000000000000e+00
6.3155907291446667e+00 0.0000000000000000e+00 0.0000000000000000e+00
6.3155541780076971e+00 0.0000000000000000e+00 0.0000000000000000e+00
6.3155186906837386e+00 0.0000000000000000e+00 0.0000000000000000e+00
6.3154833390770975e+00 0.0000000000000000e+00 0.0000000000000000e+00
6.3154454056745584e+00 0.0000000000000000e+00 0.0000000000000000e+00
6.3154025512601768e+00 0.0000000000000000e+00 0.0000000000000000e+00
6.3153569182751035e+00 0.0000000000000000e+00 0.0000000000000000e+00
6.3153124785906840e+00 0.0000000000000000e+00 0.0000000000000000e+00
6.3152674031435518e+00 0.0000000000000000e+00 0.0000000000000000e+00
6.3152214505957316e+00 0.0000000000000000e+00 0.0000000000000000e+00
6.3151744221672699e+00 0.0000000000000000e+00 0.0000000000000000e+00
6.3151261816306317e+00 0.0000000000000000e+00 0.0000000000000000e+00
6.3150770596442278e+00 0.0000000000000000e+00 0.0000000000000000e+00
6.3150271967833280e+00 0.0000000000000000e+00 0.0000000000000000e+00
6.3149758351713201e+00 0.0000000000000000e+00 0.0000000000000000e+00
6.3149228976580085e+00 0.0000000000000000e+00 0.0000000000000000e+00
6.3148686728807917e+00 0.0000000000000000e+00 0.0000000000000000e+00
6.3148132023605861e+00 0.0000000000000000e+00 0.0000000000000000e+00
6.3147565518197473e+00 0.0000000000000000e+00 0.0000000000000000e+00
6.3146986579626319e+00 0.0000000000000000e+00 0.0000000000000000e+00
6.3146397946709829e+00 0.0000000000000000e+00 0.0000000000000000e+00
6.3145801234237018e+00 0.0000000000000000e+00 0.0000000000000000e+00
6.3145194200978736e+00 0.0000000000000000e+00 0.0000000000000000e+00
6.3144576341124514e+00 0.0000000000000000e+00 0.0000000000000000e+00
6.3143947390404263e+00 0.0000000000000000e+00 0.0000000000000000e+00
6.3143307202074448e+00 0.0000000000000000e+00 0.0000000000000000e+00
6.3142655658092712e+00 0.0000000000000000e+00 0.0000000000000000e+00
6.3141992725567402e+00 0.0000000000000000e+00 0.0000000000000000e+00
6.3141318466386451e+00 0.0000000000000000e+00 0.0000000000000000e+00
6.3140632936246535e+00 0.0000000000000000e+00 0.0000000000000000e+00
6.3139936174634945e+00 0.0000000000000000e+00 0.0000000000000000e+00
6.3139228218956909e+00 0.0000000000000000e+00 0.0000000000000000e+00
6.3138509125549911e+00 0.0000000000000000e+00 0.0000000000000000e+00
6.3137778955003201e+00 0.0000000000000000e+00 0.0000000000000000e+00
6.3137037775899527e+00 0.0000000000000000e+00 0.0000000000000000e+00
6.3136285653013866e+00 0.0000000000000000e+00 0.0000000000000000e+00
6.3135522651663125e+00 0.0000000000000000e+00 0.0000000000000000e+00
6.3134748820379443e+00 0.0000000000000000e+00 0.0000000000000000e+00
6.3133964211524232e+00 0.0000000000000000e+00 0.0000000000000000e+00
6.3133168899766039e+00 0.0000000000000000e+00 0.0000000000000000e+00
6.3132362943185578e+00 0.0000000000000000e+00 0.0000000000000000e+00
6.3131546400316729e+00 0.0000000000000000e+00 0.0000000000000000e+00
6.3130719341177564e+00 0.0000000000000000e+00 0.0000000000000000e+00
6.3129881827634398e+00 0.0000000000000000e+00 0.0000000000000000e+00
6.3129033904930774e+00 0.0000000000000000e+00 0.0000000000000000e+00
6.3128175625167877e+00 0.0000000000000000e+00 0.0000000000000000e+00
6.3127307042985183e+00 0.0000000000000000e+00 0.0000000000000000e+00
6.3126428210442898e+00 0.0000000000000000e+00 0.0000000000000000e+00
6.3125539180553929e+00 0.0000000000000000e+00 0.0000000000000000e+00
6.3124640006049075e+00 0.0000000000000000e+00 0.0000000000000000e+00
6.3123730738953743e+00 0.0000000000000000e+00 0.0000000000000000e+00
6.3122811431484021e+00 0.0000000000000000e+00 0.0000000000000000e+00
6.3121882138506953e+00 0.0000000000000000e+00 0.0000000000000000e+00
6.3120942914784637e+00 0.0000000000000000e+00 0.0000000000000000e+00
6.3119993808446990e+00 0.0000000000000000e+00 0.0000000000000000e+00
6.3119034873059485e+00 0.0000000000000000e+00 0.0000000000000000e+00
6.3118066145270850e+00 0.0000000000000000e+00 0.0000000000000000e+00
6.3117087675265120e+00 0.0000000000000000e+00 0.0000000000000000e+00
6.3116099499579335e+00 0.0000000000000000e+00 0.0000000000000000e+00
6.3115101678520151e+00 0.0000000000000000e+00 0.0000000000000000e+00
6.3114094288228113e+00 0.0000000000000000e+00 0.0000000000000000e+00
6.3113077340424413e+00 0.0000000000000000e+00 0.0000000000000000e+00
6.3112050875355932e+00 0.0000000000000000e+00 0.0000000000000000e+00
6.3111014935519938e+00 0.0000000000000000e+00 0.0000000000000000e+00
6.3109969587836048e+00 0.0000000000000000e+00 0.0000000000000000e+00
6.3108914855115810e+00 0.0000000000000000e+00 0.0000000000000000e+00
6.3107850760961695e+00 0.0000000000000000e+00 0.0000000000000000e+00
6.3106777303742643e+00 0.0000000000000000e+00 0.0000000000000000e+00
6.3105694559027237e+00 0.0000000000000000e+00 0.0000000000000000e+00
6.3104602639025460e+00 0.0000000000000000e+00 0.0000000000000000e+00
6.3103501533875912e+00 0.0000000000000000e+00 0.0000000000000000e+00
6.3102391281094388e+00 0.0000000000000000e+00 0.0000000000000000e+00
6.3101271876061054e+00 0.0000000000000000e+00 0.0000000000000000e+00
6.3100143392973109e+00 0.0000000000000000e+00 0.0000000000000000e+00
6.3099005851222678e+00 0.0000000000000000e+00 0.0000000000000000e+00
6.3097859337048829e+00 0.0000000000000000e+00 0.0000000000000000e+00
6.3096703746220886e+00 0.0000000000000000e+00 0.0000000000000000e+00
6.3095539449276465e+00 0.0000000000000000e+00 0.0000000000000000e+00
6.3094365616097132e+00 0.0000000000000000e+00 0.0000000000000000e+00
6.3093184413998049e+00 0.0000000000000000e+00 0.0000000000000000e+00
6.3091990804861267e+00 0.0000000000000000e+00 0.0000000000000000e+00
6.3090797195724484e+00 0.0000000000000000e+00 0.0000000000000000e+00


SCALARS pressure float
LOOKUP_TABLE default
-2.1180895460159952e+01
-2.0972378820653301e+01
-2.0763862181146649e+01
-2.0555366838311240e+01
-2.0346857595893802e+01
-2.0138308808405068e+01
-1.9929700896611486e+01
-1.9721039891500439e+01
-1.9512303099740642e+01
-1.9303449508686459e+01
-1.9094471051496868e+01
-1.8885375605052626e+01
-1.8676169828113956e+01
-1.8466869779503853e+01
-1.8257494047688013e+01
-1.8048040792585333e+01
-1.7838511601414993e+01
-1.7628883278088015e+01
-1.7419128762025831e+01
-1.7209272353349508e+01
-1.6999334378133259e+01
-1.6789315160459328e+01
-1.6579220933615307e+01
-1.6369050830297763e+01
-1.6158793091207674e+01
-1.5948431480052742e+01
-1.5737970360056652e+01
-1.5527431264727861e+01
-1.5316813244974091e+01
-1.5106115818857319e+01
-1.4895339014754571e+01
-1.4684483268074612e+01
-1.4473551145869550e+01
-1.4262544749126386e+01
-1.4051461605920816e+01
-1.3840301109211364e+01
-1.3629065000580734e+01
-1.3417754634478760e+01
-1.3206371391665021e+01
-1.2994916116211169e+01
-1.2783390957582620e+01
-1.2571797844942429e+01
-1.2360136961996623e+01
-1.2148408786735773e+01
-1.1936613997234160e+01
-1.1724753386602865e+01
-1.1512827796069663e+01
-1.1300838121798513e+01
-1.1088785322193958e+01
-1.0876670373394857e+01
-1.0664494251107262e+01
-1.0452257931464075e+01
-1.0239962401060437e+01
-1.0027608653150475e+01
-9.8151976882866876e+00
-9.6027305089703301e+00
-9.3902081203071930e+00
-9.1776315219585634e+00
-8.9650017148806942e+00
-8.7523197120926373e+00
-8.5395865239827629e+00
-8.3268031617242393e+00
-8.1139706433861374e+00
-7.9010899866395583e+00
-7.6881622025363363e+00
-7.4751883043914100e+00
-7.2621693084353636e+00
-7.0491062316134618e+00
-6.8360000925157136e+00
-6.6228519110677064e+00
-6.4096627082316182e+00
-6.1964335063240235e+00
-5.9831653302367629e+00
-5.7698592065343020e+00
-5.5565161599645778e+00
-5.3431372180528651e+00
-5.1297234019290352e+00
-4.9162757376485198e+00
-4.7027952470630270e+00
-4.4892829622869899e+00
-4.2757399267486438e+00
-4.0621671578429810e+00
-3.8485656787782059e+00
-3.6349365157840823e+00
-3.4212807076933061e+00
-3.2075992772597979e+00
-2.9938932430486349e+00
-2.7801636100980081e+00
-2.5664114162298759e+00
-2.3526377266574126e+00
-2.1388435580642473e+00
-1.9250299338510635e+00
-1.7111978605683260e+00
-1.4973483759235744e+00
-1.2834825028743231e+00
-1.0696012865357276e+00
-8.5570570219412989e-01
-6.4179689374123527e-01
-4.2787557528606351e-01
-2.1394352900269104e-01
0.0000000000000000e+00


SCALARS diameter float
LOOKUP_TABLE default
9.9808143556696682e-01
9.9810721118698076e-01
9.9812767414628101e-01
9.9814761294158294e-01
9.9816655484166705e-01
9.9818549969562553e-01
9.9820310930152223e-01
9.9821985101122868e-01
9.9823865422408031e-01
9.9825857521644557e-01
9.9827870932675111e-01
9.9829882980614548e-01
9.9831863484834094e-01
9.9833709978600071e-01
9.9835498681756318e-01
9.9837266076155629e-01
9.9839046127583830e-01
9.9841081006787213e-01
9.9843094260082343e-01
9.9844974795644770e-01
9.9846838018834838e-01
9.9848667020603799e-01
9.9850459997280216e-01
9.9852319439895554e-01
9.9854271665647942e-01
9.9856286093993918e-01
9.9858166365767265e-01
9.9860043531618570e-01
9.9861922309765871e-01
9.9863802968917892e-01
9.9865688868111324e-01
9.9867576941595460e-01
9.9869453284334042e-01
9.9871345363873687e-01
9.9873254152530144e-01
9.9875163865356009e-01
9.9877074666895294e-01
9.9878986670258296e-01
9.9880899822346902e-01
9.9882813492833689e-01
9.9884715603593655e-01
9.9886618460567234e-01
9.9888522207132990e-01
9.9890426801294041e-01
9.9892332243284021e-01
9.9894238641051281e-01
9.9896146101651340e-01
9.9898054400274205e-01
9.9899963493174171e-01
9.9901873392500962e-01
9.9903784159373243e-01
9.9905695763876035e-01
9.9907608183262431e-01
9.9909521384209909e-01
9.9911435331961940e-01
9.9913350021419733e-01
9.9915265437239420e-01
9.9917181631963581e-01
9.9919098506085691e-01
9.9921016057457246e-01
9.9922934275614139e-01
9.9924853121350410e-01
9.9926772549521570e-01
9.9928692593339041e-01
9.9930613244611421e-01
9.9932534477780988e-01
9.9934456279441486e-01
9.9936378633860024e-01
9.9938301518973571e-01
9.9940224919415710e-01
9.9942148812407583e-01
9.9944073174580605e-01
9.9945997971905631e-01
9.9947923194804067e-01
9.9949848823903764e-01
9.9951774842944974e-01
9.9953701277863061e-01
9.9955628052803291e-01
9.9957555221882155e-01
9.9959482573315006e-01
9.9961410244791860e-01
9.9963338239472355e-01
9.9965266491706706e-01
9.9967194980938967e-01
9.9969123621780875e-01
9.9971052599437915e-01
9.9972981793486893e-01
9.9974911351436202e-01
9.9976840749132723e-01
9.9978770346079060e-01
9.9980700028202762e-01
9.9982629901979247e-01
9.9984559882602475e-01
9.9986489848615101e-01
9.9988419889737401e-01
9.9990349908713627e-01
9.9992279964595077e-01
9.9994210020357643e-01
9.9996139996321953e-01
9.9998069744654838e-01
9.9999999294629449e-01


SCALARS iters float
LOOKUP_TABLE default
4.0000000000000000e+00
4.0000000000000000e+00
4.0000000000000000e+00
4.0000000000000000e+00
4.0000000000000000e+00
4.0000000000000000e+00
4.0000000000000000e+00
4.0000000000000000e+00
4.0000000000000000e+00
4.0000000000000000e+00
4.0000000000000000e+00
4.0000000000000000e+00
4.0000000000000000e+00
4.0000000000000000e+00
4.0000000000000000e+00
4.0000000000000000e+00
4.0000000000000000e+00
4.0000000000000000e+00
4.0000000000000000e+00
4.0000000000000000e+00
4.0000000000000000e+00
4.0000000000000000e+00
4.0000000000000000e+00
4.0000000000000000e+00
4.0000000000000000e+00
4.0000000000000000e+00
4.0000000000000000e+00
4.0000000000000000e+00
4.0000000000000000e+00
4.0000000000000000e+00
4.0000000000000000e+00
4.0000000000000000e+00
4.0000000000000000e+00
4.0000000000000000e+00
4.0000000000000000e+00
4.0000000000000000e+00
4.0000000000000000e+00
4.0000000000000000e+00
4.0000000000000000e+00
4.0000000000000000e+00
4.0000000000000000e+00
4.0000000000000000e+00
4.0000000000000000e+00
4.0000000000000000e+00
4.0000000000000000e+00
4.0000000000000000e+00
4.0000000000000000e+00
4.0000000000000000e+00
4.0000000000000000e+00
4.0000000000000000e+00
4.0000000000000000e+00
4.0000000000000000e+00
4.0000000000000000e+00
4.0000000000000000e+00
4.0000000000000000e+00
4.0000000000000000e+00
4.0000000000000000e+00
4.0000000000000000e+00
4.0000000000000000e+00
4.0000000000000000e+00
4.0000000000000000e+00
4.0000000000000000e+00
4.0000000000000000e+00
4.0000000000000000e+00
4.0000000000000000e+00
4.0000000000000000e+00
4.0000000000000000e+00
4.0000000000000000e+00
4.0000000000000000e+00
4.0000000000000000e+00
4.0000000000000000e+00
4.0000000000000000e+00
4.0000000000000000e+00
4.0000000000000000e+00
4.0000000000000000e+00
4.0000000000000000e+00
4.0000000000000000e+00
4.0000000000000000e+00
4.0000000000000000e+00
4.0000000000000000e+00
4.0000000000000000e+00
4.0000000000000000e+00
4.0000000000000000e+00
4.0000000000000000e+00
4.0000000000000000e+00
4.0000000000000000e+00
4.0000000000000000e+00
4.0000000000000000e+00
4.0000000000000000e+00
4.0000000000000000e+00
4.0000000000000000e+00
4.0000000000000000e+00
4.0000000000000000e+00
4.0000000000000000e+00
4.0000000000000000e+00
4.0000000000000000e+00
4.0000000000000000e+00
4.0000000000000000e+00
4.0000000000000000e+00
4.0000000000000000e+00
4.0000000000000000e+00


