# vtk DataFile Version 2.0

ASCII

DATASET UNSTRUCTURED_GRID

POINTS 101 float

0.0000000000000000e+00 0.0000000000000000e+00 0.0000000000000000e+00
1.0000000000000001e-01 0.0000000000000000e+00 0.0000000000000000e+00
2.0000000000000001e-01 0.0000000000000000e+00 0.0000000000000000e+00
3.0000000000000004e-01 0.0000000000000000e+00 0.0000000000000000e+00
4.0000000000000002e-01 0.0000000000000000e+00 0.0000000000000000e+00
5.0000000000000000e-01 0.0000000000000000e+00 0.0000000000000000e+00
6.0000000000000009e-01 0.0000000000000000e+00 0.0000000000000000e+00
7.0000000000000007e-01 0.0000000000000000e+00 0.0000000000000000e+00
8.0000000000000004e-01 0.0000000000000000e+00 0.0000000000000000e+00
9.0000000000000002e-01 0.0000000000000000e+00 0.0000000000000000e+00
1.0000000000000000e+00 0.0000000000000000e+00 0.0000000000000000e+00
1.1000000000000001e+00 0.0000000000000000e+00 0.0000000000000000e+00
1.2000000000000002e+00 0.0000000000000000e+00 0.0000000000000000e+00
1.3000000000000000e+00 0.0000000000000000e+00 0.0000000000000000e+00
1.4000000000000001e+00 0.0000000000000000e+00 0.0000000000000000e+00
1.5000000000000000e+00 0.0000000000000000e+00 0.0000000000000000e+00
1.6000000000000001e+00 0.0000000000000000e+00 0.0000000000000000e+00
1.7000000000000002e+00 0.0000000000000000e+00 0.0000000000000000e+00
1.8000000000000000e+00 0.0000000000000000e+00 0.0000000000000000e+00
1.9000000000000001e+00 0.0000000000000000e+00 0.0000000000000000e+00
2.0000000000000000e+00 0.0000000000000000e+00 0.0000000000000000e+00
2.1000000000000001e+00 0.0000000000000000e+00 0.0000000000000000e+00
2.2000000000000002e+00 0.0000000000000000e+00 0.0000000000000000e+00
2.3000000000000003e+00 0.0000000000000000e+00 0.0000000000000000e+00
2.4000000000000004e+00 0.0000000000000000e+00 0.0000000000000000e+00
2.5000000000000000e+00 0.0000000000000000e+00 0.0000000000000000e+00
2.6000000000000001e+00 0.0000000000000000e+00 0.0000000000000000e+00
2.7000000000000002e+00 0.0000000000000000e+00 0.0000000000000000e+00
2.8000000000000003e+00 0.0000000000000000e+00 0.0000000000000000e+00
2.9000000000000004e+00 0.0000000000000000e+00 0.0000000000000000e+00
3.0000000000000000e+00 0.0000000000000000e+00 0.0000000000000000e+00
3.1000000000000001e+00 0.0000000000000000e+00 0.0000000000000000e+00
3.2000000000000002e+00 0.0000000000000000e+00 0.0000000000000000e+00
3.3000000000000003e+00 0.0000000000000000e+00 0.0000000000000000e+00
3.4000000000000004e+00 0.0000000000000000e+00 0.0000000000000000e+00
3.5000000000000000e+00 0.0000000000000000e+00 0.0000000000000000e+00
3.6000000000000001e+00 0.0000000000000000e+00 0.0000000000000000e+00
3.7000000000000002e+00 0.0000000000000000e+00 0.0000000000000000e+00
3.8000000000000003e+00 0.0000000000000000e+00 0.0000000000000000e+00
3.9000000000000004e+00 0.0000000000000000e+00 0.0000000000000000e+00
4.0000000000000000e+00 0.0000000000000000e+00 0.0000000000000000e+00
4.1000000000000005e+00 0.0000000000000000e+00 0.0000000000000000e+00
4.2000000000000002e+00 0.0000000000000000e+00 0.0000000000000000e+00
4.2999999999999998e+00 0.0000000000000000e+00 0.0000000000000000e+00
4.4000000000000004e+00 0.0000000000000000e+00 0.0000000000000000e+00
4.5000000000000000e+00 0.0000000000000000e+00 0.0000000000000000e+00
4.6000000000000005e+00 0.0000000000000000e+00 0.0000000000000000e+00
4.7000000000000002e+00 0.0000000000000000e+00 0.0000000000000000e+00
4.8000000000000007e+00 0.0000000000000000e+00 0.0000000000000000e+00
4.9000000000000004e+00 0.0000000000000000e+00 0.0000000000000000e+00
5.0000000000000000e+00 0.0000000000000000e+00 0.0000000000000000e+00
5.1000000000000005e+00 0.0000000000000000e+00 0.0000000000000000e+00
5.2000000000000002e+00 0.0000000000000000e+00 0.0000000000000000e+00
5.3000000000000007e+00 0.0000000000000000e+00 0.0000000000000000e+00
5.4000000000000004e+00 0.0000000000000000e+00 0.0000000000000000e+00
5.5000000000000000e+00 0.0000000000000000e+00 0.0000000000000000e+00
5.6000000000000005e+00 0.0000000000000000e+00 0.0000000000000000e+00
5.7000000000000002e+00 0.0000000000000000e+00 0.0000000000000000e+00
5.8000000000000007e+00 0.0000000000000000e+00 0.0000000000000000e+00
5.9000000000000004e+00 0.0000000000000000e+00 0.0000000000000000e+00
6.0000000000000000e+00 0.0000000000000000e+00 0.0000000000000000e+00
6.1000000000000005e+00 0.0000000000000000e+00 0.0000000000000000e+00
6.2000000000000002e+00 0.0000000000000000e+00 0.0000000000000000e+00
6.3000000000000007e+00 0.0000000000000000e+00 0.0000000000000000e+00
6.4000000000000004e+00 0.0000000000000000e+00 0.0000000000000000e+00
6.5000000000000000e+00 0.0000000000000000e+00 0.0000000000000000e+00
6.6000000000000005e+00 0.0000000000000000e+00 0.0000000000000000e+00
6.7000000000000002e+00 0.0000000000000000e+00 0.0000000000000000e+00
6.8000000000000007e+00 0.0000000000000000e+00 0.0000000000000000e+00
6.9000000000000004e+00 0.0000000000000000e+00 0.0000000000000000e+00
7.0000000000000000e+00 0.0000000000000000e+00 0.0000000000000000e+00
7.1000000000000005e+00 0.0000000000000000e+00 0.0000000000000000e+00
7.2000000000000002e+00 0.0000000000000000e+00 0.0000000000000000e+00
7.3000000000000007e+00 0.0000000000000000e+00 0.0000000000000000e+00
7.4000000000000004e+00 0.0000000000000000e+00 0.0000000000000000e+00
7.5000000000000000e+00 0.0000000000000000e+00 0.0000000000000000e+00
7.6000000000000005e+00 0.0000000000000000e+00 0.0000000000000000e+00
7.7000000000000002e+00 0.0000000000000000e+00 0.0000000000000000e+00
7.8000000000000007e+00 0.0000000000000000e+00 0.0000000000000000e+00
7.9000000000000004e+00 0.0000000000000000e+00 0.0000000000000000e+00
8.0000000000000000e+00 0.0000000000000000e+00 0.0000000000000000e+00
8.0999999999999996e+00 0.0000000000000000e+00 0.0000000000000000e+00
8.2000000000000011e+00 0.0000000000000000e+00 0.0000000000000000e+00
8.3000000000000007e+00 0.0000000000000000e+00 0.0000000000000000e+00
8.4000000000000004e+00 0.0000000000000000e+00 0.0000000000000000e+00
8.5000000000000000e+00 0.0000000000000000e+00 0.0000000000000000e+00
8.5999999999999996e+00 0.0000000000000000e+00 0.0000000000000000e+00
8.7000000000000011e+00 0.0000000000000000e+00 0.0000000000000000e+00
8.8000000000000007e+00 0.0000000000000000e+00 0.0000000000000000e+00
8.9000000000000004e+00 0.0000000000000000e+00 0.0000000000000000e+00
9.0000000000000000e+00 0.0000000000000000e+00 0.0000000000000000e+00
9.0999999999999996e+00 0.0000000000000000e+00 0.0000000000000000e+00
9.2000000000000011e+00 0.0000000000000000e+00 0.0000000000000000e+00
9.3000000000000007e+00 0.0000000000000000e+00 0.0000000000000000e+00
9.4000000000000004e+00 0.0000000000000000e+00 0.0000000000000000e+00
9.5000000000000000e+00 0.0000000000000000e+00 0.0000000000000000e+00
9.6000000000000014e+00 0.0000000000000000e+00 0.0000000000000000e+00
9.7000000000000011e+00 0.0000000000000000e+00 0.0000000000000000e+00
9.8000000000000007e+00 0.0000000000000000e+00 0.0000000000000000e+00
9.9000000000000004e+00 0.0000000000000000e+00 0.0000000000000000e+00
1.0000000000000000e+01 0.0000000000000000e+00 0.0000000000000000e+00

POINT_DATA 101

VECTORS velocity float
6.3509156506211779e+00 0.0000000000000000e+00 0.0000000000000000e+00
6.3508472670248057e+00 0.0000000000000000e+00 0.0000000000000000e+00
6.3508207260098759e+00 0.0000000000000000e+00 0.0000000000000000e+00
6.3508214796676468e+00 0.0000000000000000e+00 0.0000000000000000e+00
6.3508367427315084e+00 0.0000000000000000e+00 0.0000000000000000e+00
6.3508617065535642e+00 0.0000000000000000e+00 0.0000000000000000e+00
6.3508974633859347e+00 0.0000000000000000e+00 0.0000000000000000e+00
6.3509361856603164e+00 0.0000000000000000e+00 0.0000000000000000e+00
6.3509692195404064e+00 0.0000000000000000e+00 0.0000000000000000e+00
6.3509939769406429e+00 0.0000000000000000e+00 0.0000000000000000e+00
6.3510120974734230e+00 0.0000000000000000e+00 0.0000000000000000e+00
6.3510248382431040e+00 0.0000000000000000e+00 0.0000000000000000e+00
6.3510341716350993e+00 0.0000000000000000e+00 0.0000000000000000e+00
6.3510441707029468e+00 0.0000000000000000e+00 0.0000000000000000e+00
6.3510550077531533e+00 0.0000000000000000e+00 0.0000000000000000e+00
6.3510640562188980e+00 0.0000000000000000e+00 0.0000000000000000e+00
6.3510695335749103e+00 0.0000000000000000e+00 0.0000000000000000e+00
6.3510711940677878e+00 0.0000000000000000e+00 0.0000000000000000e+00
6.3510704438512349e+00 0.0000000000000000e+00 0.0000000000000000e+00
6.3510675037170090e+00 0.0000000000000000e+00 0.0000000000000000e+00
6.3510611381774709e+00 0.0000000000000000e+00 0.0000000000000000e+00
6.3510509514390012e+00 0.0000000000000000e+00 0.0000000000000000e+00
6.3510361559816246e+00 0.0000000000000000e+00 0.0000000000000000e+00
6.3510171978305197e+00 0.0000000000000000e+00 0.0000000000000000e+00
6.3510026992533337e+00 0.0000000000000000e+00 0.0000000000000000e+00
6.3509877966688295e+00 0.0000000000000000e+00 0.0000000000000000e+00
6.3509674085191650e+00 0.0000000000000000e+00 0.0000000000000000e+00
6.3509437817909147e+00 0.0000000000000000e+00 0.0000000000000000e+00
6.3509174379516260e+00 0.0000000000000000e+00 0.0000000000000000e+00
6.3508877620363222e+00 0.0000000000000000e+00 0.0000000000000000e+00
6.3508547207751151e+00 0.0000000000000000e+00 0.0000000000000000e+00
6.3508188727201205e+00 0.0000000000000000e+00 0.0000000000000000e+00
6.3507810372325366e+00 0.0000000000000000e+00 0.0000000000000000e+00
6.3507417457526918e+00 0.0000000000000000e+00 0.0000000000000000e+00
6.3507006074745025e+00 0.0000000000000000e+00 0.0000000000000000e+00
6.3506573971129789e+00 0.0000000000000000e+00 0.0000000000000000e+00
6.3506120240774742e+00 0.0000000000000000e+00 0.0000000000000000e+00
6.3505644230906313e+00 0.0000000000000000e+00 0.0000000000000000e+00
6.3505146214807402e+00 0.0000000000000000e+00 0.0000000000000000e+00
6.3504623239648250e+00 0.0000000000000000e+00 0.0000000000000000e+00
6.3504069170348529e+00 0.0000000000000000e+00 0.0000000000000000e+00
6.3503487139058805e+00 0.0000000000000000e+00 0.0000000000000000e+00
6.3502877318250999e+00 0.0000000000000000e+00 0.0000000000000000e+00
6.3502239841002508e+00 0.0000000000000000e+00 0.0000000000000000e+00
6.3501574810322801e+00 0.0000000000000000e+00 0.0000000000000000e+00
6.3500882333431088e+00 0.0000000000000000e+00 0.0000000000000000e+00
6.3500162520586532e+00 0.0000000000000000e+00 0.0000000000000000e+00
6.3499415504688050e+00 0.0000000000000000e+00 0.0000000000000000e+00
6.3498641429140292e+00 0.0000000000000000e+00 0.0000000000000000e+00
6.3497840442982785e+00 0.0000000000000000e+00 0.0000000000000000e+00
6.3497012700954754e+00 0.0000000000000000e+00 0.0000000000000000e+00
6.3496158354850918e+00 0.0000000000000000e+00 0.0000000000000000e+00
6.3495277566559087e+00 0.0000000000000000e+00 0.0000000000000000e+00
6.3494370500726891e+00 0.0000000000000000e+00 0.0000000000000000e+00
6.3493437318350860e+00 0.0000000000000000e+00 0.0000000000000000e+00
6.3492478171481173e+00 0.0000000000000000e+00 0.0000000000000000e+00
6.3491493209170100e+00 0.0000000000000000e+00 0.0000000000000000e+00
6.3490482589115551e+00 0.0000000000000000e+00 0.0000000000000000e+00
6.3489446472874898e+00 0.0000000000000000e+00 0.0000000000000000e+00
6.3488385011416186e+00 0.0000000000000000e+00 0.0000000000000000e+00
6.3487298356598600e+00 0.0000000000000000e+00 0.0000000000000000e+00
6.3486186658103714e+00 0.0000000000000000e+00 0.0000000000000000e+00
6.3485050061251043e+00 0.0000000000000000e+00 0.0000000000000000e+00
6.3483888706542659e+00 0.0000000000000000e+00 0.0000000000000000e+00
6.3482702735178664e+00 0.0000000000000000e+00 0.0000000000000000e+00
6.3481492287055943e+00 0.0000000000000000e+00 0.0000000000000000e+00
6.3480257499014678e+00 0.0000000000000000e+00 0.0000000000000000e+00
6.3478998507778766e+00 0.0000000000000000e+00 0.0000000000000000e+00
6.3477715448068448e+00 0.0000000000000000e+00 0.0000000000000000e+00
6.3476408451787121e+00 0.0000000000000000e+00 0.0000000000000000e+00
6.3475077647451785e+00 0.0000000000000000e+00 0.0000000000000000e+00
6.3473723162022946e+00 0.0000000000000000e+00 0.0000000000000000e+00
6.3472345119356035e+00 0.0000000000000000e+00 0.0000000000000000e+00
6.3470943645711735e+00 0.0000000000000000e+00 0.0000000000000000e+00
6.3469518864794487e+00 0.0000000000000000e+00 0.0000000000000000e+00
6.3468070894478945e+00 0.0000000000000000e+00 0.0000000000000000e+00
6.3466599859377837e+00 0.0000000000000000e+00 0.0000000000000000e+00
6.3465105867598073e+00 0.0000000000000000e+00 0.0000000000000000e+00
6.3463589041295938e+00 0.0000000000000000e+00 0.0000000000000000e+00
6.3462049500763014e+00 0.0000000000000000e+00 0.0000000000000000e+00
6.3460487343640288e+00 0.0000000000000000e+00 0.0000000000000000e+00
6.3458902676452063e+00 0.0000000000000000e+00 0.0000000000000000e+00
6.3457295607698274e+00 0.0000000000000000e+00 0.0000000000000000e+00
6.3455666262342270e+00 0.0000000000000000e+00 0.0000000000000000e+00
6.3454014727657491e+00 0.0000000000000000e+00 0.0000000000000000e+00
6.3452341079386052e+00 0.0000000000000000e+00 0.0000000000000000e+00
6.3450645415743345e+00 0.0000000000000000e+00 0.0000000000000000e+00
6.3448927819906036e+00 0.0000000000000000e+00 0.0000000000000000e+00
6.3447188423334504e+00 0.0000000000000000e+00 0.0000000000000000e+00
6.3445427321355270e+00 0.0000000000000000e+00 0.0000000000000000e+00
6.3443644632850029e+00 0.0000000000000000e+00 0.0000000000000000e+00
6.3441840382151993e+00 0.0000000000000000e+00 0.0000000000000000e+00
6.3440014683160735e+00 0.0000000000000000e+00 0.0000000000000000e+00
6.3438167578536175e+00 0.0000000000000000e+00 0.0000000000000000e+00
6.3436299317268645e+00 0.0000000000000000e+00 0.0000000000000000e+00
6.3434409547185346e+00 0.0000000000000000e+00 0.0000000000000000e+00
6.3432499385798593e+00 0.0000000000000000e+00 0.0000000000000000e+00
6.3430566439344771e+00 0.0000000000000000e+00 0.0000000000000000e+00
6.3428616580859432e+00 0.0000000000000000e+00 0.0000000000000000e+00
6.3426636524774080e+00 0.0000000000000000e+00 0.0000000000000000e+00
6.3424656468688729e+00 0.0000000000000000e+00 0.0000000000000000e+00


SCALARS pressure float
LOOKUP_TABLE default
-3.4686036950465805e+01
-3.4355338200108307e+01
-3.4024639449750815e+01
-3.3693812047376831e+01
-3.3362749196104645e+01
-3.3031361747469369e+01
-3.2699600705334582e+01
-3.2367455092332015e+01
-3.2034887152677392e+01
-3.1701848958846405e+01
-3.1368317179339122e+01
-3.1034294888329001e+01
-3.0699791188164930e+01
-3.0364820144057031e+01
-3.0029406255233607e+01
-2.9693559437901843e+01
-2.9357274307706952e+01
-2.9020544878253357e+01
-2.8683370454462455e+01
-2.8345759863762847e+01
-2.8007719666026336e+01
-2.7669249727513936e+01
-2.7330353522699745e+01
-2.6991034578369060e+01
-2.6651300608934505e+01
-2.6311189565389355e+01
-2.5970690042555237e+01
-2.5629782367242814e+01
-2.5288475262254000e+01
-2.4946777395185816e+01
-2.4604692732852662e+01
-2.4262226658944620e+01
-2.3919387516780898e+01
-2.3576185319805194e+01
-2.3232628477375549e+01
-2.2888720844113521e+01
-2.2544465939736313e+01
-2.2199867896998722e+01
-2.1854931106750925e+01
-2.1509660710056618e+01
-2.1164059861143954e+01
-2.0818129004223728e+01
-2.0471872644952967e+01
-2.0125295265228424e+01
-1.9778401414153599e+01
-1.9431195706462521e+01
-1.9083682816322966e+01
-1.8735867465413225e+01
-1.8387754424234750e+01
-1.8039348501867174e+01
-1.7690654536949101e+01
-1.7341677392969235e+01
-1.6992421952567387e+01
-1.6642893121164850e+01
-1.6293095824237056e+01
-1.5943035003041802e+01
-1.5592715611274425e+01
-1.5242142615716880e+01
-1.4891321000952669e+01
-1.4540255769362648e+01
-1.4188951934050381e+01
-1.3837414521689382e+01
-1.3485648572055940e+01
-1.3133659136559629e+01
-1.2781451276896494e+01
-1.2429030067084367e+01
-1.2076400593086978e+01
-1.1723567951605585e+01
-1.1370537250844533e+01
-1.1017313609683717e+01
-1.0663902156868346e+01
-1.0310308030403077e+01
-9.9565363781055556e+00
-9.6025923569674703e+00
-9.2484811348776486e+00
-8.8942078889014553e+00
-8.5397778025551023e+00
-8.1851960707373692e+00
-7.8304678904001914e+00
-7.4755984717608728e+00
-7.1205930353466504e+00
-6.7654567990413970e+00
-6.4101949893074774e+00
-6.0548128411626072e+00
-5.6993156053754097e+00
-5.3437085250186680e+00
-4.9879968393084946e+00
-4.6321857988863080e+00
-4.2762806581605757e+00
-3.9202867011769400e+00
-3.5642092056699379e+00
-3.2080534596248049e+00
-2.8518247149834837e+00
-2.4955282570149837e+00
-2.1391693563826739e+00
-1.7827533604421026e+00
-1.4262854097754658e+00
-1.0697711444488576e+00
-7.1321504733417473e-01
-3.5662425624076077e-01
0.0000000000000000e+00


SCALARS diameter float
LOOKUP_TABLE default
9.9686157431120637e-01
9.9689945206891917e-01
9.9693313956867147e-01
9.9696477490167446e-01
9.9699530100117273e-01
9.9702592436242687e-01
9.9705425378036017e-01
9.9708177095648109e-01
9.9711092644976551e-01
9.9714175308392161e-01
9.9717334141269287e-01
9.9720504637076512e-01
9.9723677643691611e-01
9.9726750704855782e-01
9.9729713155681121e-01
9.9732673066117594e-01
9.9735671242977486e-01
9.9738721084494131e-01
9.9741751501813780e-01
9.9744757763239178e-01
9.9747778384959929e-01
9.9750833615673373e-01
9.9753931019397313e-01
9.9757097508841563e-01
9.9760152285384818e-01
9.9763020085682985e-01
9.9766058856961493e-01
9.9769102021040779e-01
9.9772148554352647e-01
9.9775201628467036e-01
9.9778290986022788e-01
9.9781384145998120e-01
9.9784479124210534e-01
9.9787552821248959e-01
9.9790622736900703e-01
9.9793695777613189e-01
9.9796772130811373e-01
9.9799851921382199e-01
9.9802935071779497e-01
9.9806023113411213e-01
9.9809137106770174e-01
9.9812253884628643e-01
9.9815373729984225e-01
9.9818496582728933e-01
9.9821622415199451e-01
9.9824751204235385e-01
9.9827882906224952e-01
9.9831017476694661e-01
9.9834154851063195e-01
9.9837295004246140e-01
9.9840437879655264e-01
9.9843583444719608e-01
9.9846731649857035e-01
9.9849882422400582e-01
9.9853035718082495e-01
9.9856191497927471e-01
9.9859349743862869e-01
9.9862510404639893e-01
9.9865673392903920e-01
9.9868838672594962e-01
9.9872006195518925e-01
9.9875175907186797e-01
9.9878347764888664e-01
9.9881521732793932e-01
9.9884697765882280e-01
9.9887875810429694e-01
9.9891055823305586e-01
9.9894237753344173e-01
9.9897421548331722e-01
9.9900607160976818e-01
9.9903794544243396e-01
9.9906983654673442e-01
9.9910174444294275e-01
9.9913366868674025e-01
9.9916560864623571e-01
9.9919756397815662e-01
9.9922953410634863e-01
9.9926151843797262e-01
9.9929351687482026e-01
9.9932552796204255e-01
9.9935755228823797e-01
9.9938958899726249e-01
9.9942163774483594e-01
9.9945369749379709e-01
9.9948576773315490e-01
9.9951784940542632e-01
9.9954994118181639e-01
9.9958204320854160e-01
9.9961415377000140e-01
9.9964627263037498e-01
9.9967839883301590e-01
9.9971053258687925e-01
9.9974267464110944e-01
9.9977482238633431e-01
9.9980697630083171e-01
9.9983913573088656e-01
9.9987130027529181e-01
9.9990346943944353e-01
9.9993564243189570e-01
9.9996781877731378e-01
1.0000000001501663e+00


SCALARS iters float
LOOKUP_TABLE default
4.0000000000000000e+00
4.0000000000000000e+00
4.0000000000000000e+00
4.0000000000000000e+00
4.0000000000000000e+00
4.0000000000000000e+00
4.0000000000000000e+00
4.0000000000000000e+00
4.0000000000000000e+00
4.0000000000000000e+00
4.0000000000000000e+00
4.0000000000000000e+00
4.0000000000000000e+00
4.0000000000000000e+00
4.0000000000000000e+00
4.0000000000000000e+00
4.0000000000000000e+00
4.0000000000000000e+00
4.0000000000000000e+00
4.0000000000000000e+00
4.0000000000000000e+00
4.0000000000000000e+00
4.0000000000000000e+00
4.0000000000000000e+00
4.0000000000000000e+00
4.0000000000000000e+00
4.0000000000000000e+00
4.0000000000000000e+00
4.0000000000000000e+00
4.0000000000000000e+00
4.0000000000000000e+00
4.0000000000000000e+00
4.0000000000000000e+00
4.0000000000000000e+00
4.0000000000000000e+00
4.0000000000000000e+00
4.0000000000000000e+00
4.0000000000000000e+00
4.0000000000000000e+00
4.0000000000000000e+00
4.0000000000000000e+00
4.0000000000000000e+00
4.0000000000000000e+00
4.0000000000000000e+00
4.0000000000000000e+00
4.0000000000000000e+00
4.0000000000000000e+00
4.0000000000000000e+00
4.0000000000000000e+00
4.0000000000000000e+00
4.0000000000000000e+00
4.0000000000000000e+00
4.0000000000000000e+00
4.0000000000000000e+00
4.0000000000000000e+00
4.0000000000000000e+00
4.0000000000000000e+00
4.0000000000000000e+00
4.0000000000000000e+00
4.0000000000000000e+00
4.0000000000000000e+00
4.0000000000000000e+00
4.0000000000000000e+00
4.0000000000000000e+00
4.0000000000000000e+00
4.0000000000000000e+00
4.0000000000000000e+00
4.0000000000000000e+00
4.0000000000000000e+00
4.0000000000000000e+00
4.0000000000000000e+00
4.0000000000000000e+00
4.0000000000000000e+00
4.0000000000000000e+00
4.0000000000000000e+00
4.0000000000000000e+00
4.0000000000000000e+00
4.0000000000000000e+00
4.0000000000000000e+00
4.0000000000000000e+00
4.0000000000000000e+00
4.0000000000000000e+00
4.0000000000000000e+00
4.0000000000000000e+00
4.0000000000000000e+00
4.0000000000000000e+00
4.0000000000000000e+00
4.0000000000000000e+00
4.0000000000000000e+00
4.0000000000000000e+00
4.0000000000000000e+00
4.0000000000000000e+00
4.0000000000000000e+00
4.0000000000000000e+00
4.0000000000000000e+00
4.0000000000000000e+00
4.0000000000000000e+00
4.0000000000000000e+00
4.0000000000000000e+00
4.0000000000000000e+00
4.0000000000000000e+00


