# vtk DataFile Version 2.0

ASCII

DATASET UNSTRUCTURED_GRID

POINTS 101 float

0.0000000000000000e+00 0.0000000000000000e+00 0.0000000000000000e+00
1.0000000000000001e-01 0.0000000000000000e+00 0.0000000000000000e+00
2.0000000000000001e-01 0.0000000000000000e+00 0.0000000000000000e+00
3.0000000000000004e-01 0.0000000000000000e+00 0.0000000000000000e+00
4.0000000000000002e-01 0.0000000000000000e+00 0.0000000000000000e+00
5.0000000000000000e-01 0.0000000000000000e+00 0.0000000000000000e+00
6.0000000000000009e-01 0.0000000000000000e+00 0.0000000000000000e+00
7.0000000000000007e-01 0.0000000000000000e+00 0.0000000000000000e+00
8.0000000000000004e-01 0.0000000000000000e+00 0.0000000000000000e+00
9.0000000000000002e-01 0.0000000000000000e+00 0.0000000000000000e+00
1.0000000000000000e+00 0.0000000000000000e+00 0.0000000000000000e+00
1.1000000000000001e+00 0.0000000000000000e+00 0.0000000000000000e+00
1.2000000000000002e+00 0.0000000000000000e+00 0.0000000000000000e+00
1.3000000000000000e+00 0.0000000000000000e+00 0.0000000000000000e+00
1.4000000000000001e+00 0.0000000000000000e+00 0.0000000000000000e+00
1.5000000000000000e+00 0.0000000000000000e+00 0.0000000000000000e+00
1.6000000000000001e+00 0.0000000000000000e+00 0.0000000000000000e+00
1.7000000000000002e+00 0.0000000000000000e+00 0.0000000000000000e+00
1.8000000000000000e+00 0.0000000000000000e+00 0.0000000000000000e+00
1.9000000000000001e+00 0.0000000000000000e+00 0.0000000000000000e+00
2.0000000000000000e+00 0.0000000000000000e+00 0.0000000000000000e+00
2.1000000000000001e+00 0.0000000000000000e+00 0.0000000000000000e+00
2.2000000000000002e+00 0.0000000000000000e+00 0.0000000000000000e+00
2.3000000000000003e+00 0.0000000000000000e+00 0.0000000000000000e+00
2.4000000000000004e+00 0.0000000000000000e+00 0.0000000000000000e+00
2.5000000000000000e+00 0.0000000000000000e+00 0.0000000000000000e+00
2.6000000000000001e+00 0.0000000000000000e+00 0.0000000000000000e+00
2.7000000000000002e+00 0.0000000000000000e+00 0.0000000000000000e+00
2.8000000000000003e+00 0.0000000000000000e+00 0.0000000000000000e+00
2.9000000000000004e+00 0.0000000000000000e+00 0.0000000000000000e+00
3.0000000000000000e+00 0.0000000000000000e+00 0.0000000000000000e+00
3.1000000000000001e+00 0.0000000000000000e+00 0.0000000000000000e+00
3.2000000000000002e+00 0.0000000000000000e+00 0.0000000000000000e+00
3.3000000000000003e+00 0.0000000000000000e+00 0.0000000000000000e+00
3.4000000000000004e+00 0.0000000000000000e+00 0.0000000000000000e+00
3.5000000000000000e+00 0.0000000000000000e+00 0.0000000000000000e+00
3.6000000000000001e+00 0.0000000000000000e+00 0.0000000000000000e+00
3.7000000000000002e+00 0.0000000000000000e+00 0.0000000000000000e+00
3.8000000000000003e+00 0.0000000000000000e+00 0.0000000000000000e+00
3.9000000000000004e+00 0.0000000000000000e+00 0.0000000000000000e+00
4.0000000000000000e+00 0.0000000000000000e+00 0.0000000000000000e+00
4.1000000000000005e+00 0.0000000000000000e+00 0.0000000000000000e+00
4.2000000000000002e+00 0.0000000000000000e+00 0.0000000000000000e+00
4.2999999999999998e+00 0.0000000000000000e+00 0.0000000000000000e+00
4.4000000000000004e+00 0.0000000000000000e+00 0.0000000000000000e+00
4.5000000000000000e+00 0.0000000000000000e+00 0.0000000000000000e+00
4.6000000000000005e+00 0.0000000000000000e+00 0.0000000000000000e+00
4.7000000000000002e+00 0.0000000000000000e+00 0.0000000000000000e+00
4.8000000000000007e+00 0.0000000000000000e+00 0.0000000000000000e+00
4.9000000000000004e+00 0.0000000000000000e+00 0.0000000000000000e+00
5.0000000000000000e+00 0.0000000000000000e+00 0.0000000000000000e+00
5.1000000000000005e+00 0.0000000000000000e+00 0.0000000000000000e+00
5.2000000000000002e+00 0.0000000000000000e+00 0.0000000000000000e+00
5.3000000000000007e+00 0.0000000000000000e+00 0.0000000000000000e+00
5.4000000000000004e+00 0.0000000000000000e+00 0.0000000000000000e+00
5.5000000000000000e+00 0.0000000000000000e+00 0.0000000000000000e+00
5.6000000000000005e+00 0.0000000000000000e+00 0.0000000000000000e+00
5.7000000000000002e+00 0.0000000000000000e+00 0.0000000000000000e+00
5.8000000000000007e+00 0.0000000000000000e+00 0.0000000000000000e+00
5.9000000000000004e+00 0.0000000000000000e+00 0.0000000000000000e+00
6.0000000000000000e+00 0.0000000000000000e+00 0.0000000000000000e+00
6.1000000000000005e+00 0.0000000000000000e+00 0.0000000000000000e+00
6.2000000000000002e+00 0.0000000000000000e+00 0.0000000000000000e+00
6.3000000000000007e+00 0.0000000000000000e+00 0.0000000000000000e+00
6.4000000000000004e+00 0.0000000000000000e+00 0.0000000000000000e+00
6.5000000000000000e+00 0.0000000000000000e+00 0.0000000000000000e+00
6.6000000000000005e+00 0.0000000000000000e+00 0.0000000000000000e+00
6.7000000000000002e+00 0.0000000000000000e+00 0.0000000000000000e+00
6.8000000000000007e+00 0.0000000000000000e+00 0.0000000000000000e+00
6.9000000000000004e+00 0.0000000000000000e+00 0.0000000000000000e+00
7.0000000000000000e+00 0.0000000000000000e+00 0.0000000000000000e+00
7.1000000000000005e+00 0.0000000000000000e+00 0.0000000000000000e+00
7.2000000000000002e+00 0.0000000000000000e+00 0.0000000000000000e+00
7.3000000000000007e+00 0.0000000000000000e+00 0.0000000000000000e+00
7.4000000000000004e+00 0.0000000000000000e+00 0.0000000000000000e+00
7.5000000000000000e+00 0.0000000000000000e+00 0.0000000000000000e+00
7.6000000000000005e+00 0.0000000000000000e+00 0.0000000000000000e+00
7.7000000000000002e+00 0.0000000000000000e+00 0.0000000000000000e+00
7.8000000000000007e+00 0.0000000000000000e+00 0.0000000000000000e+00
7.9000000000000004e+00 0.0000000000000000e+00 0.0000000000000000e+00
8.0000000000000000e+00 0.0000000000000000e+00 0.0000000000000000e+00
8.0999999999999996e+00 0.0000000000000000e+00 0.0000000000000000e+00
8.2000000000000011e+00 0.0000000000000000e+00 0.0000000000000000e+00
8.3000000000000007e+00 0.0000000000000000e+00 0.0000000000000000e+00
8.4000000000000004e+00 0.0000000000000000e+00 0.0000000000000000e+00
8.5000000000000000e+00 0.0000000000000000e+00 0.0000000000000000e+00
8.5999999999999996e+00 0.0000000000000000e+00 0.0000000000000000e+00
8.7000000000000011e+00 0.0000000000000000e+00 0.0000000000000000e+00
8.8000000000000007e+00 0.0000000000000000e+00 0.0000000000000000e+00
8.9000000000000004e+00 0.0000000000000000e+00 0.0000000000000000e+00
9.0000000000000000e+00 0.0000000000000000e+00 0.0000000000000000e+00
9.0999999999999996e+00 0.0000000000000000e+00 0.0000000000000000e+00
9.2000000000000011e+00 0.0000000000000000e+00 0.0000000000000000e+00
9.3000000000000007e+00 0.0000000000000000e+00 0.0000000000000000e+00
9.4000000000000004e+00 0.0000000000000000e+00 0.0000000000000000e+00
9.5000000000000000e+00 0.0000000000000000e+00 0.0000000000000000e+00
9.6000000000000014e+00 0.0000000000000000e+00 0.0000000000000000e+00
9.7000000000000011e+00 0.0000000000000000e+00 0.0000000000000000e+00
9.8000000000000007e+00 0.0000000000000000e+00 0.0000000000000000e+00
9.9000000000000004e+00 0.0000000000000000e+00 0.0000000000000000e+00
1.0000000000000000e+01 0.0000000000000000e+00 0.0000000000000000e+00

POINT_DATA 101

VECTORS velocity float
5.2505439484981871e+00 0.0000000000000000e+00 0.0000000000000000e+00
5.2503119920157255e+00 0.0000000000000000e+00 0.0000000000000000e+00
5.2500838957039164e+00 0.0000000000000000e+00 0.0000000000000000e+00
5.2498598251328072e+00 0.0000000000000000e+00 0.0000000000000000e+00
5.2496414795403421e+00 0.0000000000000000e+00 0.0000000000000000e+00
5.2494267620104749e+00 0.0000000000000000e+00 0.0000000000000000e+00
5.2492168360657523e+00 0.0000000000000000e+00 0.0000000000000000e+00
5.2490143017596322e+00 0.0000000000000000e+00 0.0000000000000000e+00
5.2488110097910106e+00 0.0000000000000000e+00 0.0000000000000000e+00
5.2486016088293068e+00 0.0000000000000000e+00 0.0000000000000000e+00
5.2483890586866613e+00 0.0000000000000000e+00 0.0000000000000000e+00
5.2481755877338321e+00 0.0000000000000000e+00 0.0000000000000000e+00
5.2479617467923569e+00 0.0000000000000000e+00 0.0000000000000000e+00
5.2477497682479655e+00 0.0000000000000000e+00 0.0000000000000000e+00
5.2475407186985175e+00 0.0000000000000000e+00 0.0000000000000000e+00
5.2473351583349688e+00 0.0000000000000000e+00 0.0000000000000000e+00
5.2471336411724421e+00 0.0000000000000000e+00 0.0000000000000000e+00
5.2469316984703811e+00 0.0000000000000000e+00 0.0000000000000000e+00
5.2467268197976722e+00 0.0000000000000000e+00 0.0000000000000000e+00
5.2465195783789360e+00 0.0000000000000000e+00 0.0000000000000000e+00
5.2463119824019007e+00 0.0000000000000000e+00 0.0000000000000000e+00
5.2461078828146155e+00 0.0000000000000000e+00 0.0000000000000000e+00
5.2459082871346530e+00 0.0000000000000000e+00 0.0000000000000000e+00
5.2457120471033472e+00 0.0000000000000000e+00 0.0000000000000000e+00
5.2455091040725126e+00 0.0000000000000000e+00 0.0000000000000000e+00
5.2453011870666479e+00 0.0000000000000000e+00 0.0000000000000000e+00
5.2450980202949120e+00 0.0000000000000000e+00 0.0000000000000000e+00
5.2448964963700124e+00 0.0000000000000000e+00 0.0000000000000000e+00
5.2446959987739712e+00 0.0000000000000000e+00 0.0000000000000000e+00
5.2444960584698057e+00 0.0000000000000000e+00 0.0000000000000000e+00
5.2442966052001987e+00 0.0000000000000000e+00 0.0000000000000000e+00
5.2440978289413023e+00 0.0000000000000000e+00 0.0000000000000000e+00
5.2438997110830519e+00 0.0000000000000000e+00 0.0000000000000000e+00
5.2437015246112644e+00 0.0000000000000000e+00 0.0000000000000000e+00
5.2435032139096807e+00 0.0000000000000000e+00 0.0000000000000000e+00
5.2433049871353337e+00 0.0000000000000000e+00 0.0000000000000000e+00
5.2431068816316788e+00 0.0000000000000000e+00 0.0000000000000000e+00
5.2429089274233052e+00 0.0000000000000000e+00 0.0000000000000000e+00
5.2427110851052232e+00 0.0000000000000000e+00 0.0000000000000000e+00
5.2425135717497318e+00 0.0000000000000000e+00 0.0000000000000000e+00
5.2423169253247774e+00 0.0000000000000000e+00 0.0000000000000000e+00
5.2421209356296181e+00 0.0000000000000000e+00 0.0000000000000000e+00
5.2419255769747091e+00 0.0000000000000000e+00 0.0000000000000000e+00
5.2417308400258014e+00 0.0000000000000000e+00 0.0000000000000000e+00
5.2415367207048584e+00 0.0000000000000000e+00 0.0000000000000000e+00
5.2413432151375376e+00 0.0000000000000000e+00 0.0000000000000000e+00
5.2411503194912417e+00 0.0000000000000000e+00 0.0000000000000000e+00
5.2409580346072353e+00 0.0000000000000000e+00 0.0000000000000000e+00
5.2407663605531862e+00 0.0000000000000000e+00 0.0000000000000000e+00
5.2405752959671288e+00 0.0000000000000000e+00 0.0000000000000000e+00
5.2403848381547116e+00 0.0000000000000000e+00 0.0000000000000000e+00
5.2401949849928133e+00 0.0000000000000000e+00 0.0000000000000000e+00
5.2400057353188272e+00 0.0000000000000000e+00 0.0000000000000000e+00
5.2398170879083628e+00 0.0000000000000000e+00 0.0000000000000000e+00
5.2396290415201356e+00 0.0000000000000000e+00 0.0000000000000000e+00
5.2394415952677447e+00 0.0000000000000000e+00 0.0000000000000000e+00
5.2392547467743897e+00 0.0000000000000000e+00 0.0000000000000000e+00
5.2390684938001213e+00 0.0000000000000000e+00 0.0000000000000000e+00
5.2388828364318272e+00 0.0000000000000000e+00 0.0000000000000000e+00
5.2386977736975187e+00 0.0000000000000000e+00 0.0000000000000000e+00
5.2385133045041616e+00 0.0000000000000000e+00 0.0000000000000000e+00
5.2383294277580115e+00 0.0000000000000000e+00 0.0000000000000000e+00
5.2381461427905416e+00 0.0000000000000000e+00 0.0000000000000000e+00
5.2379634481983413e+00 0.0000000000000000e+00 0.0000000000000000e+00
5.2377813428748370e+00 0.0000000000000000e+00 0.0000000000000000e+00
5.2375998259768481e+00 0.0000000000000000e+00 0.0000000000000000e+00
5.2374188965213007e+00 0.0000000000000000e+00 0.0000000000000000e+00
5.2372385537237109e+00 0.0000000000000000e+00 0.0000000000000000e+00
5.2370587969064033e+00 0.0000000000000000e+00 0.0000000000000000e+00
5.2368796252882497e+00 0.0000000000000000e+00 0.0000000000000000e+00
5.2367010382393060e+00 0.0000000000000000e+00 0.0000000000000000e+00
5.2365230352134970e+00 0.0000000000000000e+00 0.0000000000000000e+00
5.2363456159608006e+00 0.0000000000000000e+00 0.0000000000000000e+00
5.2361687803317194e+00 0.0000000000000000e+00 0.0000000000000000e+00
5.2359925281580519e+00 0.0000000000000000e+00 0.0000000000000000e+00
5.2358168590317575e+00 0.0000000000000000e+00 0.0000000000000000e+00
5.2356417728104487e+00 0.0000000000000000e+00 0.0000000000000000e+00
5.2354672688830437e+00 0.0000000000000000e+00 0.0000000000000000e+00
5.2352933473142267e+00 0.0000000000000000e+00 0.0000000000000000e+00
5.2351200107351206e+00 0.0000000000000000e+00 0.0000000000000000e+00
5.2349472571782307e+00 0.0000000000000000e+00 0.0000000000000000e+00
5.2347750860924771e+00 0.0000000000000000e+00 0.0000000000000000e+00
5.2346034978250238e+00 0.0000000000000000e+00 0.0000000000000000e+00
5.2344324956020651e+00 0.0000000000000000e+00 0.0000000000000000e+00
5.2342620786028391e+00 0.0000000000000000e+00 0.0000000000000000e+00
5.2340922422350786e+00 0.0000000000000000e+00 0.0000000000000000e+00
5.2339229854983431e+00 0.0000000000000000e+00 0.0000000000000000e+00
5.2337543117856935e+00 0.0000000000000000e+00 0.0000000000000000e+00
5.2335862284025207e+00 0.0000000000000000e+00 0.0000000000000000e+00
5.2334187332684721e+00 0.0000000000000000e+00 0.0000000000000000e+00
5.2332518253567315e+00 0.0000000000000000e+00 0.0000000000000000e+00
5.2330855005589347e+00 0.0000000000000000e+00 0.0000000000000000e+00
5.2329197626875281e+00 0.0000000000000000e+00 0.0000000000000000e+00
5.2327546168650256e+00 0.0000000000000000e+00 0.0000000000000000e+00
5.2325900568647130e+00 0.0000000000000000e+00 0.0000000000000000e+00
5.2324260969143497e+00 0.0000000000000000e+00 0.0000000000000000e+00
5.2322627068410998e+00 0.0000000000000000e+00 0.0000000000000000e+00
5.2320999598855611e+00 0.0000000000000000e+00 0.0000000000000000e+00
5.2319376912191968e+00 0.0000000000000000e+00 0.0000000000000000e+00
5.2317762886807850e+00 0.0000000000000000e+00 0.0000000000000000e+00
5.2316148861423732e+00 0.0000000000000000e+00 0.0000000000000000e+00


SCALARS pressure float
LOOKUP_TABLE default
-3.3761564407538714e+01
-3.3420004591791347e+01
-3.3078444776043987e+01
-3.2736968593656670e+01
-3.2395596330656531e+01
-3.2054341819092357e+01
-3.1713200561094922e+01
-3.1372179032705006e+01
-3.1031288115137084e+01
-3.0690490902163383e+01
-3.0349757357980856e+01
-3.0009094532675253e+01
-2.9668513363707596e+01
-2.9328020429248763e+01
-2.8987629394433245e+01
-2.8647348209479532e+01
-2.8307182312492639e+01
-2.7967132626635756e+01
-2.7627172815915337e+01
-2.7287285687747044e+01
-2.6947473478649787e+01
-2.6607747614303971e+01
-2.6268128866077721e+01
-2.5928626546657394e+01
-2.5589235177319171e+01
-2.5249906757110988e+01
-2.4910637364690654e+01
-2.4571468188382113e+01
-2.4232394078075597e+01
-2.3893410897435903e+01
-2.3554515652098544e+01
-2.3215707543588643e+01
-2.2876987228871766e+01
-2.2538354644997369e+01
-2.2199805512818191e+01
-2.1861337390016875e+01
-2.1522949616342704e+01
-2.1184641220980311e+01
-2.0846411231157756e+01
-2.0508258236485627e+01
-2.0170182362091222e+01
-1.9832186058604556e+01
-1.9494268641702142e+01
-1.9156429462815524e+01
-1.8818667877667210e+01
-1.8480983219626161e+01
-1.8143374782452582e+01
-1.7805841825510434e+01
-1.7468383605489862e+01
-1.7130999360525021e+01
-1.6793688303668013e+01
-1.6456449621817374e+01
-1.6119282485383035e+01
-1.5782186052068759e+01
-1.5445159464474871e+01
-1.5108201850047948e+01
-1.4771312322827313e+01
-1.4434489975982867e+01
-1.4097733886544937e+01
-1.3761043127243894e+01
-1.3424416754174345e+01
-1.3087853808621748e+01
-1.2751353319476435e+01
-1.2414914305652635e+01
-1.2078535770418837e+01
-1.1742216705153030e+01
-1.1405956090395772e+01
-1.1069752894602049e+01
-1.0733606075475194e+01
-1.0397514580157704e+01
-1.0061477344733179e+01
-9.7254932956567313e+00
-9.3895613503902240e+00
-9.0536804189774767e+00
-8.7178494030731049e+00
-8.3820671959564592e+00
-8.0463326809064082e+00
-7.7106447331577179e+00
-7.3750022180558181e+00
-7.0394039960850385e+00
-6.7038489348463308e+00
-6.3683358769910763e+00
-6.0328636606986654e+00
-5.6974311222815892e+00
-5.3620371050959728e+00
-5.0266804326053371e+00
-4.6913599047493229e+00
-4.3560743256945864e+00
-4.0208225151155412e+00
-3.6856033154505639e+00
-3.3504155268806741e+00
-3.0152579425298649e+00
-2.6801293381346847e+00
-2.3450285191045190e+00
-2.0099542985361225e+00
-1.6749054447730027e+00
-1.3398807950022278e+00
-1.0048790341252638e+00
-6.6989918546826943e-01
-3.3493952097654467e-01
0.0000000000000000e+00


SCALARS diameter float
LOOKUP_TABLE default
9.9695222373452974e-01
9.9698970831977718e-01
9.9702242673277097e-01
9.9705448757012360e-01
9.9708485168642336e-01
9.9711510100903200e-01
9.9714481266319399e-01
9.9717317830202656e-01
9.9720162809254476e-01
9.9723269694819971e-01
9.9726442372548252e-01
9.9729604574115105e-01
9.9732759200650034e-01
9.9735894223340082e-01
9.9738967898791964e-01
9.9741996158331647e-01
9.9744952261566322e-01
9.9747943518469695e-01
9.9751006605902059e-01
9.9754125200105148e-01
9.9757264071495155e-01
9.9760318061415021e-01
9.9763259010999528e-01
9.9766176650709704e-01
9.9769228713863256e-01
9.9772584869754599e-01
9.9775620200814330e-01
9.9778641419708158e-01
9.9781663337272108e-01
9.9784686036615367e-01
9.9787714417361906e-01
9.9790742983812020e-01
9.9793765126682410e-01
9.9796812036269789e-01
9.9799873333218514e-01
9.9802934421944278e-01
9.9805995431262684e-01
9.9809056499558124e-01
9.9812117515911059e-01
9.9815177420100965e-01
9.9818215575659341e-01
9.9821253074389638e-01
9.9824290151605299e-01
9.9827326844185582e-01
9.9830363190098426e-01
9.9833399277277513e-01
9.9836435177044525e-01
9.9839470793621243e-01
9.9842506084955718e-01
9.9845541092793788e-01
9.9848575854945532e-01
9.9851610396244728e-01
9.9854644691525418e-01
9.9857678728627386e-01
9.9860712507612615e-01
9.9863746025321398e-01
9.9866779287663210e-01
9.9869812370614142e-01
9.9872845183529901e-01
9.9875877737324836e-01
9.9878910030428225e-01
9.9881942066526330e-01
9.9884973840768754e-01
9.9888005371852384e-01
9.9891036671111511e-01
9.9894067727384495e-01
9.9897098547571028e-01
9.9900129131144999e-01
9.9903159472485592e-01
9.9906189574090210e-01
9.9909219435629648e-01
9.9912249055400459e-01
9.9915278430446985e-01
9.9918307558053177e-01
9.9921336436857400e-01
9.9924365070259236e-01
9.9927393472261217e-01
9.9930421613141318e-01
9.9933449547516950e-01
9.9936477133931256e-01
9.9939504479981578e-01
9.9942531627105369e-01
9.9945558518034694e-01
9.9948585134516510e-01
9.9951611379517957e-01
9.9954637555069226e-01
9.9957663564981947e-01
9.9960689437088368e-01
9.9963714759199251e-01
9.9966739860586307e-01
9.9969764660916249e-01
9.9972789379485227e-01
9.9975813876234021e-01
9.9978838001564296e-01
9.9981861899705837e-01
9.9984885531202239e-01
9.9987908922569424e-01
9.9990932069889737e-01
9.9993954909936600e-01
9.9996977402878229e-01
9.9999999661247574e-01


SCALARS iters float
LOOKUP_TABLE default
3.0000000000000000e+00
3.0000000000000000e+00
3.0000000000000000e+00
3.0000000000000000e+00
3.0000000000000000e+00
3.0000000000000000e+00
3.0000000000000000e+00
3.0000000000000000e+00
3.0000000000000000e+00
3.0000000000000000e+00
3.0000000000000000e+00
3.0000000000000000e+00
3.0000000000000000e+00
3.0000000000000000e+00
3.0000000000000000e+00
3.0000000000000000e+00
3.0000000000000000e+00
3.0000000000000000e+00
3.0000000000000000e+00
3.0000000000000000e+00
3.0000000000000000e+00
3.0000000000000000e+00
3.0000000000000000e+00
3.0000000000000000e+00
3.0000000000000000e+00
3.0000000000000000e+00
3.0000000000000000e+00
3.0000000000000000e+00
3.0000000000000000e+00
3.0000000000000000e+00
3.0000000000000000e+00
3.0000000000000000e+00
3.0000000000000000e+00
3.0000000000000000e+00
3.0000000000000000e+00
3.0000000000000000e+00
3.0000000000000000e+00
3.0000000000000000e+00
3.0000000000000000e+00
3.0000000000000000e+00
3.0000000000000000e+00
3.0000000000000000e+00
3.0000000000000000e+00
3.0000000000000000e+00
3.0000000000000000e+00
3.0000000000000000e+00
3.0000000000000000e+00
3.0000000000000000e+00
3.0000000000000000e+00
3.0000000000000000e+00
3.0000000000000000e+00
3.0000000000000000e+00
3.0000000000000000e+00
3.0000000000000000e+00
3.0000000000000000e+00
3.0000000000000000e+00
3.0000000000000000e+00
3.0000000000000000e+00
3.0000000000000000e+00
3.0000000000000000e+00
3.0000000000000000e+00
3.0000000000000000e+00
3.0000000000000000e+00
3.0000000000000000e+00
3.0000000000000000e+00
3.0000000000000000e+00
3.0000000000000000e+00
3.0000000000000000e+00
3.0000000000000000e+00
3.0000000000000000e+00
3.0000000000000000e+00
3.0000000000000000e+00
3.0000000000000000e+00
3.0000000000000000e+00
3.0000000000000000e+00
3.0000000000000000e+00
3.0000000000000000e+00
3.0000000000000000e+00
3.0000000000000000e+00
3.0000000000000000e+00
3.0000000000000000e+00
3.0000000000000000e+00
3.0000000000000000e+00
3.0000000000000000e+00
3.0000000000000000e+00
3.0000000000000000e+00
3.0000000000000000e+00
3.0000000000000000e+00
3.0000000000000000e+00
3.0000000000000000e+00
3.0000000000000000e+00
3.0000000000000000e+00
3.0000000000000000e+00
3.0000000000000000e+00
3.0000000000000000e+00
3.0000000000000000e+00
3.0000000000000000e+00
3.0000000000000000e+00
3.0000000000000000e+00
3.0000000000000000e+00
3.0000000000000000e+00


