# vtk DataFile Version 2.0

ASCII

DATASET UNSTRUCTURED_GRID

POINTS 101 float

0.0000000000000000e+00 0.0000000000000000e+00 0.0000000000000000e+00
1.0000000000000001e-01 0.0000000000000000e+00 0.0000000000000000e+00
2.0000000000000001e-01 0.0000000000000000e+00 0.0000000000000000e+00
3.0000000000000004e-01 0.0000000000000000e+00 0.0000000000000000e+00
4.0000000000000002e-01 0.0000000000000000e+00 0.0000000000000000e+00
5.0000000000000000e-01 0.0000000000000000e+00 0.0000000000000000e+00
6.0000000000000009e-01 0.0000000000000000e+00 0.0000000000000000e+00
7.0000000000000007e-01 0.0000000000000000e+00 0.0000000000000000e+00
8.0000000000000004e-01 0.0000000000000000e+00 0.0000000000000000e+00
9.0000000000000002e-01 0.0000000000000000e+00 0.0000000000000000e+00
1.0000000000000000e+00 0.0000000000000000e+00 0.0000000000000000e+00
1.1000000000000001e+00 0.0000000000000000e+00 0.0000000000000000e+00
1.2000000000000002e+00 0.0000000000000000e+00 0.0000000000000000e+00
1.3000000000000000e+00 0.0000000000000000e+00 0.0000000000000000e+00
1.4000000000000001e+00 0.0000000000000000e+00 0.0000000000000000e+00
1.5000000000000000e+00 0.0000000000000000e+00 0.0000000000000000e+00
1.6000000000000001e+00 0.0000000000000000e+00 0.0000000000000000e+00
1.7000000000000002e+00 0.0000000000000000e+00 0.0000000000000000e+00
1.8000000000000000e+00 0.0000000000000000e+00 0.0000000000000000e+00
1.9000000000000001e+00 0.0000000000000000e+00 0.0000000000000000e+00
2.0000000000000000e+00 0.0000000000000000e+00 0.0000000000000000e+00
2.1000000000000001e+00 0.0000000000000000e+00 0.0000000000000000e+00
2.2000000000000002e+00 0.0000000000000000e+00 0.0000000000000000e+00
2.3000000000000003e+00 0.0000000000000000e+00 0.0000000000000000e+00
2.4000000000000004e+00 0.0000000000000000e+00 0.0000000000000000e+00
2.5000000000000000e+00 0.0000000000000000e+00 0.0000000000000000e+00
2.6000000000000001e+00 0.0000000000000000e+00 0.0000000000000000e+00
2.7000000000000002e+00 0.0000000000000000e+00 0.0000000000000000e+00
2.8000000000000003e+00 0.0000000000000000e+00 0.0000000000000000e+00
2.9000000000000004e+00 0.0000000000000000e+00 0.0000000000000000e+00
3.0000000000000000e+00 0.0000000000000000e+00 0.0000000000000000e+00
3.1000000000000001e+00 0.0000000000000000e+00 0.0000000000000000e+00
3.2000000000000002e+00 0.0000000000000000e+00 0.0000000000000000e+00
3.3000000000000003e+00 0.0000000000000000e+00 0.0000000000000000e+00
3.4000000000000004e+00 0.0000000000000000e+00 0.0000000000000000e+00
3.5000000000000000e+00 0.0000000000000000e+00 0.0000000000000000e+00
3.6000000000000001e+00 0.0000000000000000e+00 0.0000000000000000e+00
3.7000000000000002e+00 0.0000000000000000e+00 0.0000000000000000e+00
3.8000000000000003e+00 0.0000000000000000e+00 0.0000000000000000e+00
3.9000000000000004e+00 0.0000000000000000e+00 0.0000000000000000e+00
4.0000000000000000e+00 0.0000000000000000e+00 0.0000000000000000e+00
4.1000000000000005e+00 0.0000000000000000e+00 0.0000000000000000e+00
4.2000000000000002e+00 0.0000000000000000e+00 0.0000000000000000e+00
4.2999999999999998e+00 0.0000000000000000e+00 0.0000000000000000e+00
4.4000000000000004e+00 0.0000000000000000e+00 0.0000000000000000e+00
4.5000000000000000e+00 0.0000000000000000e+00 0.0000000000000000e+00
4.6000000000000005e+00 0.0000000000000000e+00 0.0000000000000000e+00
4.7000000000000002e+00 0.0000000000000000e+00 0.0000000000000000e+00
4.8000000000000007e+00 0.0000000000000000e+00 0.0000000000000000e+00
4.9000000000000004e+00 0.0000000000000000e+00 0.0000000000000000e+00
5.0000000000000000e+00 0.0000000000000000e+00 0.0000000000000000e+00
5.1000000000000005e+00 0.0000000000000000e+00 0.0000000000000000e+00
5.2000000000000002e+00 0.0000000000000000e+00 0.0000000000000000e+00
5.3000000000000007e+00 0.0000000000000000e+00 0.0000000000000000e+00
5.4000000000000004e+00 0.0000000000000000e+00 0.0000000000000000e+00
5.5000000000000000e+00 0.0000000000000000e+00 0.0000000000000000e+00
5.6000000000000005e+00 0.0000000000000000e+00 0.0000000000000000e+00
5.7000000000000002e+00 0.0000000000000000e+00 0.0000000000000000e+00
5.8000000000000007e+00 0.0000000000000000e+00 0.0000000000000000e+00
5.9000000000000004e+00 0.0000000000000000e+00 0.0000000000000000e+00
6.0000000000000000e+00 0.0000000000000000e+00 0.0000000000000000e+00
6.1000000000000005e+00 0.0000000000000000e+00 0.0000000000000000e+00
6.2000000000000002e+00 0.0000000000000000e+00 0.0000000000000000e+00
6.3000000000000007e+00 0.0000000000000000e+00 0.0000000000000000e+00
6.4000000000000004e+00 0.0000000000000000e+00 0.0000000000000000e+00
6.5000000000000000e+00 0.0000000000000000e+00 0.0000000000000000e+00
6.6000000000000005e+00 0.0000000000000000e+00 0.0000000000000000e+00
6.7000000000000002e+00 0.0000000000000000e+00 0.0000000000000000e+00
6.8000000000000007e+00 0.0000000000000000e+00 0.0000000000000000e+00
6.9000000000000004e+00 0.0000000000000000e+00 0.0000000000000000e+00
7.0000000000000000e+00 0.0000000000000000e+00 0.0000000000000000e+00
7.1000000000000005e+00 0.0000000000000000e+00 0.0000000000000000e+00
7.2000000000000002e+00 0.0000000000000000e+00 0.0000000000000000e+00
7.3000000000000007e+00 0.0000000000000000e+00 0.0000000000000000e+00
7.4000000000000004e+00 0.0000000000000000e+00 0.0000000000000000e+00
7.5000000000000000e+00 0.0000000000000000e+00 0.0000000000000000e+00
7.6000000000000005e+00 0.0000000000000000e+00 0.0000000000000000e+00
7.7000000000000002e+00 0.0000000000000000e+00 0.0000000000000000e+00
7.8000000000000007e+00 0.0000000000000000e+00 0.0000000000000000e+00
7.9000000000000004e+00 0.0000000000000000e+00 0.0000000000000000e+00
8.0000000000000000e+00 0.0000000000000000e+00 0.0000000000000000e+00
8.0999999999999996e+00 0.0000000000000000e+00 0.0000000000000000e+00
8.2000000000000011e+00 0.0000000000000000e+00 0.0000000000000000e+00
8.3000000000000007e+00 0.0000000000000000e+00 0.0000000000000000e+00
8.4000000000000004e+00 0.0000000000000000e+00 0.0000000000000000e+00
8.5000000000000000e+00 0.0000000000000000e+00 0.0000000000000000e+00
8.5999999999999996e+00 0.0000000000000000e+00 0.0000000000000000e+00
8.7000000000000011e+00 0.0000000000000000e+00 0.0000000000000000e+00
8.8000000000000007e+00 0.0000000000000000e+00 0.0000000000000000e+00
8.9000000000000004e+00 0.0000000000000000e+00 0.0000000000000000e+00
9.0000000000000000e+00 0.0000000000000000e+00 0.0000000000000000e+00
9.0999999999999996e+00 0.0000000000000000e+00 0.0000000000000000e+00
9.2000000000000011e+00 0.0000000000000000e+00 0.0000000000000000e+00
9.3000000000000007e+00 0.0000000000000000e+00 0.0000000000000000e+00
9.4000000000000004e+00 0.0000000000000000e+00 0.0000000000000000e+00
9.5000000000000000e+00 0.0000000000000000e+00 0.0000000000000000e+00
9.6000000000000014e+00 0.0000000000000000e+00 0.0000000000000000e+00
9.7000000000000011e+00 0.0000000000000000e+00 0.0000000000000000e+00
9.8000000000000007e+00 0.0000000000000000e+00 0.0000000000000000e+00
9.9000000000000004e+00 0.0000000000000000e+00 0.0000000000000000e+00
1.0000000000000000e+01 0.0000000000000000e+00 0.0000000000000000e+00

POINT_DATA 101

VECTORS velocity float
5.7879044908125854e+00 0.0000000000000000e+00 0.0000000000000000e+00
5.7880669692113988e+00 0.0000000000000000e+00 0.0000000000000000e+00
5.7882301072964308e+00 0.0000000000000000e+00 0.0000000000000000e+00
5.7883930238732368e+00 0.0000000000000000e+00 0.0000000000000000e+00
5.7885555953152377e+00 0.0000000000000000e+00 0.0000000000000000e+00
5.7887171798328731e+00 0.0000000000000000e+00 0.0000000000000000e+00
5.7888804373985856e+00 0.0000000000000000e+00 0.0000000000000000e+00
5.7890452540695687e+00 0.0000000000000000e+00 0.0000000000000000e+00
5.7892062024570690e+00 0.0000000000000000e+00 0.0000000000000000e+00
5.7893591283620909e+00 0.0000000000000000e+00 0.0000000000000000e+00
5.7895061362808926e+00 0.0000000000000000e+00 0.0000000000000000e+00
5.7896487437635118e+00 0.0000000000000000e+00 0.0000000000000000e+00
5.7897880300121383e+00 0.0000000000000000e+00 0.0000000000000000e+00
5.7899262529572129e+00 0.0000000000000000e+00 0.0000000000000000e+00
5.7900639865219095e+00 0.0000000000000000e+00 0.0000000000000000e+00
5.7902008432256009e+00 0.0000000000000000e+00 0.0000000000000000e+00
5.7903352859891530e+00 0.0000000000000000e+00 0.0000000000000000e+00
5.7904658998129666e+00 0.0000000000000000e+00 0.0000000000000000e+00
5.7905927630349172e+00 0.0000000000000000e+00 0.0000000000000000e+00
5.7907155654314382e+00 0.0000000000000000e+00 0.0000000000000000e+00
5.7908346883187205e+00 0.0000000000000000e+00 0.0000000000000000e+00
5.7909518046337389e+00 0.0000000000000000e+00 0.0000000000000000e+00
5.7910671823807220e+00 0.0000000000000000e+00 0.0000000000000000e+00
5.7911806296730388e+00 0.0000000000000000e+00 0.0000000000000000e+00
5.7912893486705750e+00 0.0000000000000000e+00 0.0000000000000000e+00
5.7913939496530960e+00 0.0000000000000000e+00 0.0000000000000000e+00
5.7914974449649401e+00 0.0000000000000000e+00 0.0000000000000000e+00
5.7915986351842115e+00 0.0000000000000000e+00 0.0000000000000000e+00
5.7916973115640120e+00 0.0000000000000000e+00 0.0000000000000000e+00
5.7917929193650153e+00 0.0000000000000000e+00 0.0000000000000000e+00
5.7918850001560251e+00 0.0000000000000000e+00 0.0000000000000000e+00
5.7919739694686738e+00 0.0000000000000000e+00 0.0000000000000000e+00
5.7920599082047870e+00 0.0000000000000000e+00 0.0000000000000000e+00
5.7921428296973447e+00 0.0000000000000000e+00 0.0000000000000000e+00
5.7922227678721585e+00 0.0000000000000000e+00 0.0000000000000000e+00
5.7922997822436662e+00 0.0000000000000000e+00 0.0000000000000000e+00
5.7923738733745926e+00 0.0000000000000000e+00 0.0000000000000000e+00
5.7924451006138096e+00 0.0000000000000000e+00 0.0000000000000000e+00
5.7925133486575620e+00 0.0000000000000000e+00 0.0000000000000000e+00
5.7925790003823296e+00 0.0000000000000000e+00 0.0000000000000000e+00
5.7926423015252162e+00 0.0000000000000000e+00 0.0000000000000000e+00
5.7927029122122624e+00 0.0000000000000000e+00 0.0000000000000000e+00
5.7927607409374975e+00 0.0000000000000000e+00 0.0000000000000000e+00
5.7928157350529199e+00 0.0000000000000000e+00 0.0000000000000000e+00
5.7928678633343829e+00 0.0000000000000000e+00 0.0000000000000000e+00
5.7929171064475353e+00 0.0000000000000000e+00 0.0000000000000000e+00
5.7929634538412333e+00 0.0000000000000000e+00 0.0000000000000000e+00
5.7930069004169251e+00 0.0000000000000000e+00 0.0000000000000000e+00
5.7930474434484225e+00 0.0000000000000000e+00 0.0000000000000000e+00
5.7930850806766001e+00 0.0000000000000000e+00 0.0000000000000000e+00
5.7931198104800830e+00 0.0000000000000000e+00 0.0000000000000000e+00
5.7931516320926688e+00 0.0000000000000000e+00 0.0000000000000000e+00
5.7931805455588341e+00 0.0000000000000000e+00 0.0000000000000000e+00
5.7932065511390940e+00 0.0000000000000000e+00 0.0000000000000000e+00
5.7932296490063182e+00 0.0000000000000000e+00 0.0000000000000000e+00
5.7932498396418266e+00 0.0000000000000000e+00 0.0000000000000000e+00
5.7932671221443499e+00 0.0000000000000000e+00 0.0000000000000000e+00
5.7932814965350889e+00 0.0000000000000000e+00 0.0000000000000000e+00
5.7932929641166400e+00 0.0000000000000000e+00 0.0000000000000000e+00
5.7933015252552682e+00 0.0000000000000000e+00 0.0000000000000000e+00
5.7933071803025546e+00 0.0000000000000000e+00 0.0000000000000000e+00
5.7933099297012198e+00 0.0000000000000000e+00 0.0000000000000000e+00
5.7933097736105950e+00 0.0000000000000000e+00 0.0000000000000000e+00
5.7933067118771948e+00 0.0000000000000000e+00 0.0000000000000000e+00
5.7933007446505664e+00 0.0000000000000000e+00 0.0000000000000000e+00
5.7932918722627198e+00 0.0000000000000000e+00 0.0000000000000000e+00
5.7932800948849135e+00 0.0000000000000000e+00 0.0000000000000000e+00
5.7932654129142120e+00 0.0000000000000000e+00 0.0000000000000000e+00
5.7932478267650236e+00 0.0000000000000000e+00 0.0000000000000000e+00
5.7932273367669991e+00 0.0000000000000000e+00 0.0000000000000000e+00
5.7932039432303428e+00 0.0000000000000000e+00 0.0000000000000000e+00
5.7931776464896449e+00 0.0000000000000000e+00 0.0000000000000000e+00
5.7931484468280203e+00 0.0000000000000000e+00 0.0000000000000000e+00
5.7931163445680172e+00 0.0000000000000000e+00 0.0000000000000000e+00
5.7930813402016854e+00 0.0000000000000000e+00 0.0000000000000000e+00
5.7930434335768615e+00 0.0000000000000000e+00 0.0000000000000000e+00
5.7930026256431120e+00 0.0000000000000000e+00 0.0000000000000000e+00
5.7929589159974713e+00 0.0000000000000000e+00 0.0000000000000000e+00
5.7929123057602396e+00 0.0000000000000000e+00 0.0000000000000000e+00
5.7928627963456467e+00 0.0000000000000000e+00 0.0000000000000000e+00
5.7928103864501983e+00 0.0000000000000000e+00 0.0000000000000000e+00
5.7927550762933331e+00 0.0000000000000000e+00 0.0000000000000000e+00
5.7926968660465388e+00 0.0000000000000000e+00 0.0000000000000000e+00
5.7926357584773367e+00 0.0000000000000000e+00 0.0000000000000000e+00
5.7925717525038092e+00 0.0000000000000000e+00 0.0000000000000000e+00
5.7925048459435651e+00 0.0000000000000000e+00 0.0000000000000000e+00
5.7924350375931937e+00 0.0000000000000000e+00 0.0000000000000000e+00
5.7923623309579195e+00 0.0000000000000000e+00 0.0000000000000000e+00
5.7922867287516411e+00 0.0000000000000000e+00 0.0000000000000000e+00
5.7922082303270992e+00 0.0000000000000000e+00 0.0000000000000000e+00
5.7921268361568989e+00 0.0000000000000000e+00 0.0000000000000000e+00
5.7920425427638600e+00 0.0000000000000000e+00 0.0000000000000000e+00
5.7919553537238988e+00 0.0000000000000000e+00 0.0000000000000000e+00
5.7918652666375774e+00 0.0000000000000000e+00 0.0000000000000000e+00
5.7917722928478810e+00 0.0000000000000000e+00 0.0000000000000000e+00
5.7916764006520198e+00 0.0000000000000000e+00 0.0000000000000000e+00
5.7915776742256240e+00 0.0000000000000000e+00 0.0000000000000000e+00
5.7914758930442760e+00 0.0000000000000000e+00 0.0000000000000000e+00
5.7913716392840984e+00 0.0000000000000000e+00 0.0000000000000000e+00
5.7912633885910632e+00 0.0000000000000000e+00 0.0000000000000000e+00
5.7911551378980279e+00 0.0000000000000000e+00 0.0000000000000000e+00


SCALARS pressure float
LOOKUP_TABLE default
-2.2158665541060092e+01
-2.1936128147061012e+01
-2.1713590753061929e+01
-2.1491099056761662e+01
-2.1268659607778414e+01
-2.1046272716176439e+01
-2.0823934825476602e+01
-2.0601655627586375e+01
-2.0379437211537077e+01
-2.0157257756863387e+01
-1.9935093158712348e+01
-1.9712945969342851e+01
-1.9490822931894357e+01
-1.9268729216163926e+01
-1.9046674417776281e+01
-1.8824662736972432e+01
-1.8602692462454758e+01
-1.8380756848988909e+01
-1.8158850250583114e+01
-1.7936971474386674e+01
-1.7715117123143258e+01
-1.7493286588473051e+01
-1.7271485610833793e+01
-1.7049715663371948e+01
-1.6827976182858194e+01
-1.6606255606694486e+01
-1.6384553730091945e+01
-1.6162882877488535e+01
-1.5941240314077655e+01
-1.5719623950105001e+01
-1.5498030256174964e+01
-1.5276455569650823e+01
-1.5054900043204771e+01
-1.4833363286059187e+01
-1.4611844846190653e+01
-1.4390344423383263e+01
-1.4168861788397528e+01
-1.3947396463908527e+01
-1.3725948161244009e+01
-1.3504515888453337e+01
-1.3283100581565950e+01
-1.3061702957510736e+01
-1.2840321157797250e+01
-1.2618953779525246e+01
-1.2397599701906115e+01
-1.2176257967248624e+01
-1.1954927711615355e+01
-1.1733608133838105e+01
-1.1512298471046490e+01
-1.1290997979867079e+01
-1.1069705924086007e+01
-1.0848421572824410e+01
-1.0627144200516151e+01
-1.0405873086888478e+01
-1.0184607514119520e+01
-9.9633467647445411e+00
-9.7420901229314634e+00
-9.5208368674607531e+00
-9.2995862803070430e+00
-9.0783376499566764e+00
-8.8570902626820374e+00
-8.6358434044044721e+00
-8.4145963611279164e+00
-8.1933484174208253e+00
-7.9720988564479649e+00
-7.7508469625123455e+00
-7.5295920211101448e+00
-7.3083333174088922e+00
-7.0870701375915415e+00
-6.8658017682484873e+00
-6.6445274957329721e+00
-6.4232466061965354e+00
-6.2019583856398928e+00
-5.9806621194675245e+00
-5.7593570929886875e+00
-5.5380425919794547e+00
-5.3167178994959734e+00
-5.0953823028120544e+00
-4.8740350841619930e+00
-4.6526755308130365e+00
-4.4313029314552681e+00
-4.2099165633637661e+00
-3.9885157074929496e+00
-3.7670996450774048e+00
-3.5456676685065154e+00
-3.3242190558129541e+00
-3.1027530759354791e+00
-2.8812690002777992e+00
-2.6597661211303185e+00
-2.4382437299397144e+00
-2.2167011040948572e+00
-1.9951375221328160e+00
-1.7735522450276386e+00
-1.5519445593330470e+00
-1.3303137308933062e+00
-1.1086590820764186e+00
-8.8697975378103988e-01
-6.6527536473838189e-01
-4.4354427678249086e-01
-2.2178815837401303e-01
0.0000000000000000e+00


SCALARS diameter float
LOOKUP_TABLE default
9.9799433588062014e-01
9.9801926868096913e-01
9.9804112133154765e-01
9.9806248486814153e-01
9.9808294912772333e-01
9.9810337471608046e-01
9.9812274706359694e-01
9.9814097950619063e-01
9.9815953743657249e-01
9.9818010171938887e-01
9.9820128641623984e-01
9.9822244599077026e-01
9.9824356835235395e-01
9.9826410769385032e-01
9.9828377441409344e-01
9.9830317829586512e-01
9.9832234415209486e-01
9.9834206437664386e-01
9.9836215340477419e-01
9.9838251127078570e-01
9.9840301368247819e-01
9.9842322230241820e-01
9.9844289521767382e-01
9.9846247365311858e-01
9.9848224898247528e-01
9.9850303544745500e-01
9.9852284299804428e-01
9.9854258186634759e-01
9.9856233193350308e-01
9.9858211319219614e-01
9.9860214807739067e-01
9.9862218964634319e-01
9.9864221281901311e-01
9.9866223339879867e-01
9.9868227508301077e-01
9.9870232288480931e-01
9.9872237760658999e-01
9.9874244013843327e-01
9.9876250973733394e-01
9.9878257555987493e-01
9.9880244342482383e-01
9.9882231279611555e-01
9.9884218580155537e-01
9.9886206269304390e-01
9.9888194366121841e-01
9.9890182906380454e-01
9.9892171911399175e-01
9.9894161344167098e-01
9.9896151174530234e-01
9.9898141408460439e-01
9.9900132059536295e-01
9.9902123129795017e-01
9.9904114598692850e-01
9.9906106451783305e-01
9.9908098679252855e-01
9.9910091269446422e-01
9.9912084227298770e-01
9.9914077580699767e-01
9.9916071262166128e-01
9.9918065272057310e-01
9.9920059603413169e-01
9.9922054247387826e-01
9.9924049193780240e-01
9.9926044445607698e-01
9.9928040000660423e-01
9.9930035841597786e-01
9.9932031965522305e-01
9.9934028361051330e-01
9.9936025015293062e-01
9.9938021920927289e-01
9.9940019070072639e-01
9.9942016453834182e-01
9.9944014063091924e-01
9.9946011887980024e-01
9.9948009914921743e-01
9.9950008140429791e-01
9.9952006557473483e-01
9.9954005141540669e-01
9.9956003919509684e-01
9.9958002792645384e-01
9.9960001827340839e-01
9.9962001023002123e-01
9.9964000350064275e-01
9.9965999774201320e-01
9.9967999239784033e-01
9.9969998918385428e-01
9.9971998733831047e-01
9.9973998696727906e-01
9.9975998600342497e-01
9.9977998571482340e-01
9.9979998558147865e-01
9.9981998650904824e-01
9.9983998840002031e-01
9.9985998968324297e-01
9.9987999132196315e-01
9.9989999299950583e-01
9.9991999472289339e-01
9.9993999638798026e-01
9.9995999756187204e-01
9.9997999807017468e-01
9.9999999887405799e-01


SCALARS iters float
LOOKUP_TABLE default
3.0000000000000000e+00
3.0000000000000000e+00
3.0000000000000000e+00
3.0000000000000000e+00
3.0000000000000000e+00
3.0000000000000000e+00
3.0000000000000000e+00
3.0000000000000000e+00
3.0000000000000000e+00
3.0000000000000000e+00
3.0000000000000000e+00
3.0000000000000000e+00
3.0000000000000000e+00
3.0000000000000000e+00
3.0000000000000000e+00
3.0000000000000000e+00
3.0000000000000000e+00
3.0000000000000000e+00
3.0000000000000000e+00
3.0000000000000000e+00
3.0000000000000000e+00
3.0000000000000000e+00
3.0000000000000000e+00
3.0000000000000000e+00
3.0000000000000000e+00
3.0000000000000000e+00
3.0000000000000000e+00
3.0000000000000000e+00
3.0000000000000000e+00
3.0000000000000000e+00
3.0000000000000000e+00
3.0000000000000000e+00
3.0000000000000000e+00
3.0000000000000000e+00
3.0000000000000000e+00
3.0000000000000000e+00
3.0000000000000000e+00
3.0000000000000000e+00
3.0000000000000000e+00
3.0000000000000000e+00
3.0000000000000000e+00
3.0000000000000000e+00
3.0000000000000000e+00
3.0000000000000000e+00
3.0000000000000000e+00
3.0000000000000000e+00
3.0000000000000000e+00
3.0000000000000000e+00
3.0000000000000000e+00
3.0000000000000000e+00
3.0000000000000000e+00
3.0000000000000000e+00
3.0000000000000000e+00
3.0000000000000000e+00
3.0000000000000000e+00
3.0000000000000000e+00
3.0000000000000000e+00
3.0000000000000000e+00
3.0000000000000000e+00
3.0000000000000000e+00
3.0000000000000000e+00
3.0000000000000000e+00
3.0000000000000000e+00
3.0000000000000000e+00
3.0000000000000000e+00
3.0000000000000000e+00
3.0000000000000000e+00
3.0000000000000000e+00
3.0000000000000000e+00
3.0000000000000000e+00
3.0000000000000000e+00
3.0000000000000000e+00
3.0000000000000000e+00
3.0000000000000000e+00
3.0000000000000000e+00
3.0000000000000000e+00
3.0000000000000000e+00
3.0000000000000000e+00
3.0000000000000000e+00
3.0000000000000000e+00
3.0000000000000000e+00
3.0000000000000000e+00
3.0000000000000000e+00
3.0000000000000000e+00
3.0000000000000000e+00
3.0000000000000000e+00
3.0000000000000000e+00
3.0000000000000000e+00
3.0000000000000000e+00
3.0000000000000000e+00
3.0000000000000000e+00
3.0000000000000000e+00
3.0000000000000000e+00
3.0000000000000000e+00
3.0000000000000000e+00
3.0000000000000000e+00
3.0000000000000000e+00
3.0000000000000000e+00
3.0000000000000000e+00
3.0000000000000000e+00
3.0000000000000000e+00


