# vtk DataFile Version 2.0

ASCII

DATASET UNSTRUCTURED_GRID

POINTS 101 float

0.0000000000000000e+00 0.0000000000000000e+00 0.0000000000000000e+00
1.0000000000000001e-01 0.0000000000000000e+00 0.0000000000000000e+00
2.0000000000000001e-01 0.0000000000000000e+00 0.0000000000000000e+00
3.0000000000000004e-01 0.0000000000000000e+00 0.0000000000000000e+00
4.0000000000000002e-01 0.0000000000000000e+00 0.0000000000000000e+00
5.0000000000000000e-01 0.0000000000000000e+00 0.0000000000000000e+00
6.0000000000000009e-01 0.0000000000000000e+00 0.0000000000000000e+00
7.0000000000000007e-01 0.0000000000000000e+00 0.0000000000000000e+00
8.0000000000000004e-01 0.0000000000000000e+00 0.0000000000000000e+00
9.0000000000000002e-01 0.0000000000000000e+00 0.0000000000000000e+00
1.0000000000000000e+00 0.0000000000000000e+00 0.0000000000000000e+00
1.1000000000000001e+00 0.0000000000000000e+00 0.0000000000000000e+00
1.2000000000000002e+00 0.0000000000000000e+00 0.0000000000000000e+00
1.3000000000000000e+00 0.0000000000000000e+00 0.0000000000000000e+00
1.4000000000000001e+00 0.0000000000000000e+00 0.0000000000000000e+00
1.5000000000000000e+00 0.0000000000000000e+00 0.0000000000000000e+00
1.6000000000000001e+00 0.0000000000000000e+00 0.0000000000000000e+00
1.7000000000000002e+00 0.0000000000000000e+00 0.0000000000000000e+00
1.8000000000000000e+00 0.0000000000000000e+00 0.0000000000000000e+00
1.9000000000000001e+00 0.0000000000000000e+00 0.0000000000000000e+00
2.0000000000000000e+00 0.0000000000000000e+00 0.0000000000000000e+00
2.1000000000000001e+00 0.0000000000000000e+00 0.0000000000000000e+00
2.2000000000000002e+00 0.0000000000000000e+00 0.0000000000000000e+00
2.3000000000000003e+00 0.0000000000000000e+00 0.0000000000000000e+00
2.4000000000000004e+00 0.0000000000000000e+00 0.0000000000000000e+00
2.5000000000000000e+00 0.0000000000000000e+00 0.0000000000000000e+00
2.6000000000000001e+00 0.0000000000000000e+00 0.0000000000000000e+00
2.7000000000000002e+00 0.0000000000000000e+00 0.0000000000000000e+00
2.8000000000000003e+00 0.0000000000000000e+00 0.0000000000000000e+00
2.9000000000000004e+00 0.0000000000000000e+00 0.0000000000000000e+00
3.0000000000000000e+00 0.0000000000000000e+00 0.0000000000000000e+00
3.1000000000000001e+00 0.0000000000000000e+00 0.0000000000000000e+00
3.2000000000000002e+00 0.0000000000000000e+00 0.0000000000000000e+00
3.3000000000000003e+00 0.0000000000000000e+00 0.0000000000000000e+00
3.4000000000000004e+00 0.0000000000000000e+00 0.0000000000000000e+00
3.5000000000000000e+00 0.0000000000000000e+00 0.0000000000000000e+00
3.6000000000000001e+00 0.0000000000000000e+00 0.0000000000000000e+00
3.7000000000000002e+00 0.0000000000000000e+00 0.0000000000000000e+00
3.8000000000000003e+00 0.0000000000000000e+00 0.0000000000000000e+00
3.9000000000000004e+00 0.0000000000000000e+00 0.0000000000000000e+00
4.0000000000000000e+00 0.0000000000000000e+00 0.0000000000000000e+00
4.1000000000000005e+00 0.0000000000000000e+00 0.0000000000000000e+00
4.2000000000000002e+00 0.0000000000000000e+00 0.0000000000000000e+00
4.2999999999999998e+00 0.0000000000000000e+00 0.0000000000000000e+00
4.4000000000000004e+00 0.0000000000000000e+00 0.0000000000000000e+00
4.5000000000000000e+00 0.0000000000000000e+00 0.0000000000000000e+00
4.6000000000000005e+00 0.0000000000000000e+00 0.0000000000000000e+00
4.7000000000000002e+00 0.0000000000000000e+00 0.0000000000000000e+00
4.8000000000000007e+00 0.0000000000000000e+00 0.0000000000000000e+00
4.9000000000000004e+00 0.0000000000000000e+00 0.0000000000000000e+00
5.0000000000000000e+00 0.0000000000000000e+00 0.0000000000000000e+00
5.1000000000000005e+00 0.0000000000000000e+00 0.0000000000000000e+00
5.2000000000000002e+00 0.0000000000000000e+00 0.0000000000000000e+00
5.3000000000000007e+00 0.0000000000000000e+00 0.0000000000000000e+00
5.4000000000000004e+00 0.0000000000000000e+00 0.0000000000000000e+00
5.5000000000000000e+00 0.0000000000000000e+00 0.0000000000000000e+00
5.6000000000000005e+00 0.0000000000000000e+00 0.0000000000000000e+00
5.7000000000000002e+00 0.0000000000000000e+00 0.0000000000000000e+00
5.8000000000000007e+00 0.0000000000000000e+00 0.0000000000000000e+00
5.9000000000000004e+00 0.0000000000000000e+00 0.0000000000000000e+00
6.0000000000000000e+00 0.0000000000000000e+00 0.0000000000000000e+00
6.1000000000000005e+00 0.0000000000000000e+00 0.0000000000000000e+00
6.2000000000000002e+00 0.0000000000000000e+00 0.0000000000000000e+00
6.3000000000000007e+00 0.0000000000000000e+00 0.0000000000000000e+00
6.4000000000000004e+00 0.0000000000000000e+00 0.0000000000000000e+00
6.5000000000000000e+00 0.0000000000000000e+00 0.0000000000000000e+00
6.6000000000000005e+00 0.0000000000000000e+00 0.0000000000000000e+00
6.7000000000000002e+00 0.0000000000000000e+00 0.0000000000000000e+00
6.8000000000000007e+00 0.0000000000000000e+00 0.0000000000000000e+00
6.9000000000000004e+00 0.0000000000000000e+00 0.0000000000000000e+00
7.0000000000000000e+00 0.0000000000000000e+00 0.0000000000000000e+00
7.1000000000000005e+00 0.0000000000000000e+00 0.0000000000000000e+00
7.2000000000000002e+00 0.0000000000000000e+00 0.0000000000000000e+00
7.3000000000000007e+00 0.0000000000000000e+00 0.0000000000000000e+00
7.4000000000000004e+00 0.0000000000000000e+00 0.0000000000000000e+00
7.5000000000000000e+00 0.0000000000000000e+00 0.0000000000000000e+00
7.6000000000000005e+00 0.0000000000000000e+00 0.0000000000000000e+00
7.7000000000000002e+00 0.0000000000000000e+00 0.0000000000000000e+00
7.8000000000000007e+00 0.0000000000000000e+00 0.0000000000000000e+00
7.9000000000000004e+00 0.0000000000000000e+00 0.0000000000000000e+00
8.0000000000000000e+00 0.0000000000000000e+00 0.0000000000000000e+00
8.0999999999999996e+00 0.0000000000000000e+00 0.0000000000000000e+00
8.2000000000000011e+00 0.0000000000000000e+00 0.0000000000000000e+00
8.3000000000000007e+00 0.0000000000000000e+00 0.0000000000000000e+00
8.4000000000000004e+00 0.0000000000000000e+00 0.0000000000000000e+00
8.5000000000000000e+00 0.0000000000000000e+00 0.0000000000000000e+00
8.5999999999999996e+00 0.0000000000000000e+00 0.0000000000000000e+00
8.7000000000000011e+00 0.0000000000000000e+00 0.0000000000000000e+00
8.8000000000000007e+00 0.0000000000000000e+00 0.0000000000000000e+00
8.9000000000000004e+00 0.0000000000000000e+00 0.0000000000000000e+00
9.0000000000000000e+00 0.0000000000000000e+00 0.0000000000000000e+00
9.0999999999999996e+00 0.0000000000000000e+00 0.0000000000000000e+00
9.2000000000000011e+00 0.0000000000000000e+00 0.0000000000000000e+00
9.3000000000000007e+00 0.0000000000000000e+00 0.0000000000000000e+00
9.4000000000000004e+00 0.0000000000000000e+00 0.0000000000000000e+00
9.5000000000000000e+00 0.0000000000000000e+00 0.0000000000000000e+00
9.6000000000000014e+00 0.0000000000000000e+00 0.0000000000000000e+00
9.7000000000000011e+00 0.0000000000000000e+00 0.0000000000000000e+00
9.8000000000000007e+00 0.0000000000000000e+00 0.0000000000000000e+00
9.9000000000000004e+00 0.0000000000000000e+00 0.0000000000000000e+00
1.0000000000000000e+01 0.0000000000000000e+00 0.0000000000000000e+00

POINT_DATA 101

VECTORS velocity float
7.0775476702484434e+00 0.0000000000000000e+00 0.0000000000000000e+00
7.0778617480503589e+00 0.0000000000000000e+00 0.0000000000000000e+00
7.0781670582450689e+00 0.0000000000000000e+00 0.0000000000000000e+00
7.0784630213495907e+00 0.0000000000000000e+00 0.0000000000000000e+00
7.0787512451320662e+00 0.0000000000000000e+00 0.0000000000000000e+00
7.0790354905093844e+00 0.0000000000000000e+00 0.0000000000000000e+00
7.0793205589017889e+00 0.0000000000000000e+00 0.0000000000000000e+00
7.0796061889521322e+00 0.0000000000000000e+00 0.0000000000000000e+00
7.0798877152314938e+00 0.0000000000000000e+00 0.0000000000000000e+00
7.0801630217572633e+00 0.0000000000000000e+00 0.0000000000000000e+00
7.0804337083222117e+00 0.0000000000000000e+00 0.0000000000000000e+00
7.0807005814665827e+00 0.0000000000000000e+00 0.0000000000000000e+00
7.0809653562649588e+00 0.0000000000000000e+00 0.0000000000000000e+00
7.0812315159165466e+00 0.0000000000000000e+00 0.0000000000000000e+00
7.0814987606812991e+00 0.0000000000000000e+00 0.0000000000000000e+00
7.0817656985476276e+00 0.0000000000000000e+00 0.0000000000000000e+00
7.0820278884248626e+00 0.0000000000000000e+00 0.0000000000000000e+00
7.0822829289889553e+00 0.0000000000000000e+00 0.0000000000000000e+00
7.0825347678855595e+00 0.0000000000000000e+00 0.0000000000000000e+00
7.0827847937813235e+00 0.0000000000000000e+00 0.0000000000000000e+00
7.0830322008003437e+00 0.0000000000000000e+00 0.0000000000000000e+00
7.0832769846121790e+00 0.0000000000000000e+00 0.0000000000000000e+00
7.0835197612871026e+00 0.0000000000000000e+00 0.0000000000000000e+00
7.0837610175465162e+00 0.0000000000000000e+00 0.0000000000000000e+00
7.0840025956217501e+00 0.0000000000000000e+00 0.0000000000000000e+00
7.0842422841868089e+00 0.0000000000000000e+00 0.0000000000000000e+00
7.0844778820624708e+00 0.0000000000000000e+00 0.0000000000000000e+00
7.0847106268077722e+00 0.0000000000000000e+00 0.0000000000000000e+00
7.0849408546551986e+00 0.0000000000000000e+00 0.0000000000000000e+00
7.0851676831327310e+00 0.0000000000000000e+00 0.0000000000000000e+00
7.0853906515316885e+00 0.0000000000000000e+00 0.0000000000000000e+00
7.0856104807464595e+00 0.0000000000000000e+00 0.0000000000000000e+00
7.0858278949435256e+00 0.0000000000000000e+00 0.0000000000000000e+00
7.0860436735137284e+00 0.0000000000000000e+00 0.0000000000000000e+00
7.0862574538054837e+00 0.0000000000000000e+00 0.0000000000000000e+00
7.0864689155427918e+00 0.0000000000000000e+00 0.0000000000000000e+00
7.0866779610095429e+00 0.0000000000000000e+00 0.0000000000000000e+00
7.0868845327323848e+00 0.0000000000000000e+00 0.0000000000000000e+00
7.0870885728163397e+00 0.0000000000000000e+00 0.0000000000000000e+00
7.0872901242879776e+00 0.0000000000000000e+00 0.0000000000000000e+00
7.0874892898620292e+00 0.0000000000000000e+00 0.0000000000000000e+00
7.0876859928679474e+00 0.0000000000000000e+00 0.0000000000000000e+00
7.0878802207782625e+00 0.0000000000000000e+00 0.0000000000000000e+00
7.0880719658642715e+00 0.0000000000000000e+00 0.0000000000000000e+00
7.0882612231605959e+00 0.0000000000000000e+00 0.0000000000000000e+00
7.0884479889179497e+00 0.0000000000000000e+00 0.0000000000000000e+00
7.0886322602391001e+00 0.0000000000000000e+00 0.0000000000000000e+00
7.0888140341154884e+00 0.0000000000000000e+00 0.0000000000000000e+00
7.0889933088264643e+00 0.0000000000000000e+00 0.0000000000000000e+00
7.0891700825106048e+00 0.0000000000000000e+00 0.0000000000000000e+00
7.0893443526948188e+00 0.0000000000000000e+00 0.0000000000000000e+00
7.0895161179533277e+00 0.0000000000000000e+00 0.0000000000000000e+00
7.0896853760321061e+00 0.0000000000000000e+00 0.0000000000000000e+00
7.0898521247078481e+00 0.0000000000000000e+00 0.0000000000000000e+00
7.0900163624320554e+00 0.0000000000000000e+00 0.0000000000000000e+00
7.0901780875171321e+00 0.0000000000000000e+00 0.0000000000000000e+00
7.0903372975153207e+00 0.0000000000000000e+00 0.0000000000000000e+00
7.0904939906666309e+00 0.0000000000000000e+00 0.0000000000000000e+00
7.0906481658905003e+00 0.0000000000000000e+00 0.0000000000000000e+00
7.0907998212445662e+00 0.0000000000000000e+00 0.0000000000000000e+00
7.0909489547868407e+00 0.0000000000000000e+00 0.0000000000000000e+00
7.0910955652701864e+00 0.0000000000000000e+00 0.0000000000000000e+00
7.0912396512143552e+00 0.0000000000000000e+00 0.0000000000000000e+00
7.0913812106325418e+00 0.0000000000000000e+00 0.0000000000000000e+00
7.0915202419609109e+00 0.0000000000000000e+00 0.0000000000000000e+00
7.0916567437061158e+00 0.0000000000000000e+00 0.0000000000000000e+00
7.0917907143000711e+00 0.0000000000000000e+00 0.0000000000000000e+00
7.0919221524074887e+00 0.0000000000000000e+00 0.0000000000000000e+00
7.0920510566633945e+00 0.0000000000000000e+00 0.0000000000000000e+00
7.0921774256332197e+00 0.0000000000000000e+00 0.0000000000000000e+00
7.0923012579503659e+00 0.0000000000000000e+00 0.0000000000000000e+00
7.0924225523598547e+00 0.0000000000000000e+00 0.0000000000000000e+00
7.0925413075820405e+00 0.0000000000000000e+00 0.0000000000000000e+00
7.0926575223422441e+00 0.0000000000000000e+00 0.0000000000000000e+00
7.0927711954931691e+00 0.0000000000000000e+00 0.0000000000000000e+00
7.0928823256646139e+00 0.0000000000000000e+00 0.0000000000000000e+00
7.0929909119012855e+00 0.0000000000000000e+00 0.0000000000000000e+00
7.0930969528576897e+00 0.0000000000000000e+00 0.0000000000000000e+00
7.0932004476890871e+00 0.0000000000000000e+00 0.0000000000000000e+00
7.0933013957569129e+00 0.0000000000000000e+00 0.0000000000000000e+00
7.0933997957533830e+00 0.0000000000000000e+00 0.0000000000000000e+00
7.0934956467608279e+00 0.0000000000000000e+00 0.0000000000000000e+00
7.0935889477302680e+00 0.0000000000000000e+00 0.0000000000000000e+00
7.0936796980928785e+00 0.0000000000000000e+00 0.0000000000000000e+00
7.0937678967525750e+00 0.0000000000000000e+00 0.0000000000000000e+00
7.0938535427507619e+00 0.0000000000000000e+00 0.0000000000000000e+00
7.0939366356132778e+00 0.0000000000000000e+00 0.0000000000000000e+00
7.0940171735040902e+00 0.0000000000000000e+00 0.0000000000000000e+00
7.0940951560292076e+00 0.0000000000000000e+00 0.0000000000000000e+00
7.0941705823750532e+00 0.0000000000000000e+00 0.0000000000000000e+00
7.0942434541273602e+00 0.0000000000000000e+00 0.0000000000000000e+00
7.0943137698224730e+00 0.0000000000000000e+00 0.0000000000000000e+00
7.0943815286801462e+00 0.0000000000000000e+00 0.0000000000000000e+00
7.0944467280128958e+00 0.0000000000000000e+00 0.0000000000000000e+00
7.0945093750569699e+00 0.0000000000000000e+00 0.0000000000000000e+00
7.0945694457549253e+00 0.0000000000000000e+00 0.0000000000000000e+00
7.0946270041576884e+00 0.0000000000000000e+00 0.0000000000000000e+00
7.0946818744259499e+00 0.0000000000000000e+00 0.0000000000000000e+00
7.0947345321933675e+00 0.0000000000000000e+00 0.0000000000000000e+00
7.0947836848339003e+00 0.0000000000000000e+00 0.0000000000000000e+00
7.0948328374744323e+00 0.0000000000000000e+00 0.0000000000000000e+00


SCALARS pressure float
LOOKUP_TABLE default
6.3802549526258918e+00
6.3185942275802534e+00
6.2569335025346140e+00
6.1952468549250508e+00
6.1335285185830593e+00
6.0717694880359634e+00
6.0099496646014803e+00
5.9480402396594441e+00
5.8860334419435958e+00
5.8239494164053198e+00
5.7618057436620242e+00
5.6996017202567666e+00
5.6373341658959939e+00
5.5749947289066180e+00
5.5125649279876789e+00
5.4500406279257891e+00
5.3874277340052643e+00
5.3247497653050351e+00
5.2620265280578398e+00
5.1992469549468714e+00
5.1364015744134770e+00
5.0734917534375130e+00
5.0105187991759754e+00
4.9474811943868895e+00
4.8843770847154904e+00
4.8211978464811978e+00
4.7579514887894749e+00
4.6946518327956923e+00
4.6312985367842261e+00
4.5678906873596805e+00
4.5044329097242022e+00
4.4409297309817859e+00
4.3773801079515060e+00
4.3137811284411924e+00
4.2501290385166373e+00
4.1864251217449500e+00
4.1226721451746133e+00
4.0588723358265897e+00
3.9950275315551678e+00
3.9311394783376317e+00
3.8672092832223428e+00
3.8032374513485814e+00
3.7392252549482463e+00
3.6751739491173256e+00
3.6110847753280728e+00
3.5469589669995973e+00
3.4827977553956453e+00
3.4186023712858913e+00
3.3543740486902704e+00
3.2901140188504816e+00
3.2258235144313692e+00
3.1615037727634103e+00
3.0971560290502249e+00
3.0327815226472317e+00
2.9683814950462146e+00
2.9039571861742428e+00
2.8395098369337748e+00
2.7750406929366505e+00
2.7105509989040812e+00
2.6460419968020559e+00
2.5815149324097084e+00
2.5169710534670080e+00
2.4524116058047203e+00
2.3878378363736505e+00
2.3232509955161205e+00
2.2586523333670874e+00
2.1940431002690977e+00
2.1294245475715234e+00
2.0647979264467233e+00
2.0001644886952485e+00
1.9355254871829164e+00
1.8708821753366105e+00
1.8062358067540003e+00
1.7415876356951490e+00
1.6769389170784395e+00
1.6122909058823964e+00
1.5476448585937936e+00
1.4830020306427307e+00
1.4183636793580798e+00
1.3537310606942854e+00
1.2891054294999942e+00
1.2244880438006793e+00
1.1598801611854281e+00
1.0952830400117515e+00
1.0306979368215308e+00
9.6612611037398211e-01
9.0156881988299820e-01
8.3702732272289426e-01
7.7250288219821428e-01
7.0799675692653663e-01
6.4351020609673293e-01
5.7904447792907954e-01
5.1460083174332127e-01
4.5018052704750083e-01
3.8578483354114401e-01
3.2141497485897647e-01
2.5707231405442188e-01
1.9275782635844149e-01
1.2847353939048944e-01
6.4218624773809380e-02
0.0000000000000000e+00


SCALARS diameter float
LOOKUP_TABLE default
1.0005748799689647e+00
1.0005691258050677e+00
1.0005631725556257e+00
1.0005580867799013e+00
1.0005535290552752e+00
1.0005489818242224e+00
1.0005433035275224e+00
1.0005366655691241e+00
1.0005304368140342e+00
1.0005253068429278e+00
1.0005205494746574e+00
1.0005158074110736e+00
1.0005109800801308e+00
1.0005052242097356e+00
1.0004985369593109e+00
1.0004917436904135e+00
1.0004852433508269e+00
1.0004803150716799e+00
1.0004753318318900e+00
1.0004699221933959e+00
1.0004644341364759e+00
1.0004590662351442e+00
1.0004535251397217e+00
1.0004478224110767e+00
1.0004415883388253e+00
1.0004349849071454e+00
1.0004291794970062e+00
1.0004233597380585e+00
1.0004175432707352e+00
1.0004117658529186e+00
1.0004064038339089e+00
1.0004010381654969e+00
1.0003956582761944e+00
1.0003899849668361e+00
1.0003841952315251e+00
1.0003784077160225e+00
1.0003726219403741e+00
1.0003668378088353e+00
1.0003610552751665e+00
1.0003552720573607e+00
1.0003494450697947e+00
1.0003436161459442e+00
1.0003377863342588e+00
1.0003319560861406e+00
1.0003261255466038e+00
1.0003202948386181e+00
1.0003144640590642e+00
1.0003086333028215e+00
1.0003028026656178e+00
1.0002969718527013e+00
1.0002911412344069e+00
1.0002853106035441e+00
1.0002794800288550e+00
1.0002736496802247e+00
1.0002678194641375e+00
1.0002619893333200e+00
1.0002561594302588e+00
1.0002503298754961e+00
1.0002445004058798e+00
1.0002386711049467e+00
1.0002328421050164e+00
1.0002270133299251e+00
1.0002211847005205e+00
1.0002153563742069e+00
1.0002095283862156e+00
1.0002037006892379e+00
1.0001978733457972e+00
1.0001920463288501e+00
1.0001862196344506e+00
1.0001803932923530e+00
1.0001745673275644e+00
1.0001687417343241e+00
1.0001629165187440e+00
1.0001570917078841e+00
1.0001512672986790e+00
1.0001454433206440e+00
1.0001396198097654e+00
1.0001337967007116e+00
1.0001279741445948e+00
1.0001221518493486e+00
1.0001163300674425e+00
1.0001105087109552e+00
1.0001046878663014e+00
1.0000988674539648e+00
1.0000930474822263e+00
1.0000872280999393e+00
1.0000814091412353e+00
1.0000755908102437e+00
1.0000697732418098e+00
1.0000639561105764e+00
1.0000581394790933e+00
1.0000523226703009e+00
1.0000465069516293e+00
1.0000406913914521e+00
1.0000348765612028e+00
1.0000290622804038e+00
1.0000232485923635e+00
1.0000174354854228e+00
1.0000116229992213e+00
1.0000058111566918e+00
9.9999999995104727e-01


SCALARS iters float
LOOKUP_TABLE default
4.0000000000000000e+00
4.0000000000000000e+00
4.0000000000000000e+00
4.0000000000000000e+00
4.0000000000000000e+00
4.0000000000000000e+00
4.0000000000000000e+00
4.0000000000000000e+00
4.0000000000000000e+00
4.0000000000000000e+00
4.0000000000000000e+00
4.0000000000000000e+00
4.0000000000000000e+00
4.0000000000000000e+00
4.0000000000000000e+00
4.0000000000000000e+00
4.0000000000000000e+00
4.0000000000000000e+00
4.0000000000000000e+00
4.0000000000000000e+00
4.0000000000000000e+00
4.0000000000000000e+00
4.0000000000000000e+00
4.0000000000000000e+00
4.0000000000000000e+00
4.0000000000000000e+00
4.0000000000000000e+00
4.0000000000000000e+00
4.0000000000000000e+00
4.0000000000000000e+00
4.0000000000000000e+00
4.0000000000000000e+00
4.0000000000000000e+00
4.0000000000000000e+00
4.0000000000000000e+00
4.0000000000000000e+00
4.0000000000000000e+00
4.0000000000000000e+00
4.0000000000000000e+00
4.0000000000000000e+00
4.0000000000000000e+00
4.0000000000000000e+00
4.0000000000000000e+00
4.0000000000000000e+00
4.0000000000000000e+00
4.0000000000000000e+00
4.0000000000000000e+00
4.0000000000000000e+00
4.0000000000000000e+00
4.0000000000000000e+00
4.0000000000000000e+00
4.0000000000000000e+00
4.0000000000000000e+00
4.0000000000000000e+00
4.0000000000000000e+00
4.0000000000000000e+00
4.0000000000000000e+00
4.0000000000000000e+00
4.0000000000000000e+00
4.0000000000000000e+00
4.0000000000000000e+00
4.0000000000000000e+00
4.0000000000000000e+00
4.0000000000000000e+00
4.0000000000000000e+00
4.0000000000000000e+00
4.0000000000000000e+00
4.0000000000000000e+00
4.0000000000000000e+00
4.0000000000000000e+00
4.0000000000000000e+00
4.0000000000000000e+00
4.0000000000000000e+00
4.0000000000000000e+00
4.0000000000000000e+00
4.0000000000000000e+00
4.0000000000000000e+00
4.0000000000000000e+00
4.0000000000000000e+00
4.0000000000000000e+00
4.0000000000000000e+00
4.0000000000000000e+00
4.0000000000000000e+00
4.0000000000000000e+00
4.0000000000000000e+00
4.0000000000000000e+00
4.0000000000000000e+00
4.0000000000000000e+00
4.0000000000000000e+00
4.0000000000000000e+00
4.0000000000000000e+00
4.0000000000000000e+00
4.0000000000000000e+00
4.0000000000000000e+00
4.0000000000000000e+00
4.0000000000000000e+00
4.0000000000000000e+00
4.0000000000000000e+00
4.0000000000000000e+00
4.0000000000000000e+00
4.0000000000000000e+00


