# vtk DataFile Version 2.0

ASCII

DATASET UNSTRUCTURED_GRID

POINTS 101 float

0.0000000000000000e+00 0.0000000000000000e+00 0.0000000000000000e+00
1.0000000000000001e-01 0.0000000000000000e+00 0.0000000000000000e+00
2.0000000000000001e-01 0.0000000000000000e+00 0.0000000000000000e+00
3.0000000000000004e-01 0.0000000000000000e+00 0.0000000000000000e+00
4.0000000000000002e-01 0.0000000000000000e+00 0.0000000000000000e+00
5.0000000000000000e-01 0.0000000000000000e+00 0.0000000000000000e+00
6.0000000000000009e-01 0.0000000000000000e+00 0.0000000000000000e+00
7.0000000000000007e-01 0.0000000000000000e+00 0.0000000000000000e+00
8.0000000000000004e-01 0.0000000000000000e+00 0.0000000000000000e+00
9.0000000000000002e-01 0.0000000000000000e+00 0.0000000000000000e+00
1.0000000000000000e+00 0.0000000000000000e+00 0.0000000000000000e+00
1.1000000000000001e+00 0.0000000000000000e+00 0.0000000000000000e+00
1.2000000000000002e+00 0.0000000000000000e+00 0.0000000000000000e+00
1.3000000000000000e+00 0.0000000000000000e+00 0.0000000000000000e+00
1.4000000000000001e+00 0.0000000000000000e+00 0.0000000000000000e+00
1.5000000000000000e+00 0.0000000000000000e+00 0.0000000000000000e+00
1.6000000000000001e+00 0.0000000000000000e+00 0.0000000000000000e+00
1.7000000000000002e+00 0.0000000000000000e+00 0.0000000000000000e+00
1.8000000000000000e+00 0.0000000000000000e+00 0.0000000000000000e+00
1.9000000000000001e+00 0.0000000000000000e+00 0.0000000000000000e+00
2.0000000000000000e+00 0.0000000000000000e+00 0.0000000000000000e+00
2.1000000000000001e+00 0.0000000000000000e+00 0.0000000000000000e+00
2.2000000000000002e+00 0.0000000000000000e+00 0.0000000000000000e+00
2.3000000000000003e+00 0.0000000000000000e+00 0.0000000000000000e+00
2.4000000000000004e+00 0.0000000000000000e+00 0.0000000000000000e+00
2.5000000000000000e+00 0.0000000000000000e+00 0.0000000000000000e+00
2.6000000000000001e+00 0.0000000000000000e+00 0.0000000000000000e+00
2.7000000000000002e+00 0.0000000000000000e+00 0.0000000000000000e+00
2.8000000000000003e+00 0.0000000000000000e+00 0.0000000000000000e+00
2.9000000000000004e+00 0.0000000000000000e+00 0.0000000000000000e+00
3.0000000000000000e+00 0.0000000000000000e+00 0.0000000000000000e+00
3.1000000000000001e+00 0.0000000000000000e+00 0.0000000000000000e+00
3.2000000000000002e+00 0.0000000000000000e+00 0.0000000000000000e+00
3.3000000000000003e+00 0.0000000000000000e+00 0.0000000000000000e+00
3.4000000000000004e+00 0.0000000000000000e+00 0.0000000000000000e+00
3.5000000000000000e+00 0.0000000000000000e+00 0.0000000000000000e+00
3.6000000000000001e+00 0.0000000000000000e+00 0.0000000000000000e+00
3.7000000000000002e+00 0.0000000000000000e+00 0.0000000000000000e+00
3.8000000000000003e+00 0.0000000000000000e+00 0.0000000000000000e+00
3.9000000000000004e+00 0.0000000000000000e+00 0.0000000000000000e+00
4.0000000000000000e+00 0.0000000000000000e+00 0.0000000000000000e+00
4.1000000000000005e+00 0.0000000000000000e+00 0.0000000000000000e+00
4.2000000000000002e+00 0.0000000000000000e+00 0.0000000000000000e+00
4.2999999999999998e+00 0.0000000000000000e+00 0.0000000000000000e+00
4.4000000000000004e+00 0.0000000000000000e+00 0.0000000000000000e+00
4.5000000000000000e+00 0.0000000000000000e+00 0.0000000000000000e+00
4.6000000000000005e+00 0.0000000000000000e+00 0.0000000000000000e+00
4.7000000000000002e+00 0.0000000000000000e+00 0.0000000000000000e+00
4.8000000000000007e+00 0.0000000000000000e+00 0.0000000000000000e+00
4.9000000000000004e+00 0.0000000000000000e+00 0.0000000000000000e+00
5.0000000000000000e+00 0.0000000000000000e+00 0.0000000000000000e+00
5.1000000000000005e+00 0.0000000000000000e+00 0.0000000000000000e+00
5.2000000000000002e+00 0.0000000000000000e+00 0.0000000000000000e+00
5.3000000000000007e+00 0.0000000000000000e+00 0.0000000000000000e+00
5.4000000000000004e+00 0.0000000000000000e+00 0.0000000000000000e+00
5.5000000000000000e+00 0.0000000000000000e+00 0.0000000000000000e+00
5.6000000000000005e+00 0.0000000000000000e+00 0.0000000000000000e+00
5.7000000000000002e+00 0.0000000000000000e+00 0.0000000000000000e+00
5.8000000000000007e+00 0.0000000000000000e+00 0.0000000000000000e+00
5.9000000000000004e+00 0.0000000000000000e+00 0.0000000000000000e+00
6.0000000000000000e+00 0.0000000000000000e+00 0.0000000000000000e+00
6.1000000000000005e+00 0.0000000000000000e+00 0.0000000000000000e+00
6.2000000000000002e+00 0.0000000000000000e+00 0.0000000000000000e+00
6.3000000000000007e+00 0.0000000000000000e+00 0.0000000000000000e+00
6.4000000000000004e+00 0.0000000000000000e+00 0.0000000000000000e+00
6.5000000000000000e+00 0.0000000000000000e+00 0.0000000000000000e+00
6.6000000000000005e+00 0.0000000000000000e+00 0.0000000000000000e+00
6.7000000000000002e+00 0.0000000000000000e+00 0.0000000000000000e+00
6.8000000000000007e+00 0.0000000000000000e+00 0.0000000000000000e+00
6.9000000000000004e+00 0.0000000000000000e+00 0.0000000000000000e+00
7.0000000000000000e+00 0.0000000000000000e+00 0.0000000000000000e+00
7.1000000000000005e+00 0.0000000000000000e+00 0.0000000000000000e+00
7.2000000000000002e+00 0.0000000000000000e+00 0.0000000000000000e+00
7.3000000000000007e+00 0.0000000000000000e+00 0.0000000000000000e+00
7.4000000000000004e+00 0.0000000000000000e+00 0.0000000000000000e+00
7.5000000000000000e+00 0.0000000000000000e+00 0.0000000000000000e+00
7.6000000000000005e+00 0.0000000000000000e+00 0.0000000000000000e+00
7.7000000000000002e+00 0.0000000000000000e+00 0.0000000000000000e+00
7.8000000000000007e+00 0.0000000000000000e+00 0.0000000000000000e+00
7.9000000000000004e+00 0.0000000000000000e+00 0.0000000000000000e+00
8.0000000000000000e+00 0.0000000000000000e+00 0.0000000000000000e+00
8.0999999999999996e+00 0.0000000000000000e+00 0.0000000000000000e+00
8.2000000000000011e+00 0.0000000000000000e+00 0.0000000000000000e+00
8.3000000000000007e+00 0.0000000000000000e+00 0.0000000000000000e+00
8.4000000000000004e+00 0.0000000000000000e+00 0.0000000000000000e+00
8.5000000000000000e+00 0.0000000000000000e+00 0.0000000000000000e+00
8.5999999999999996e+00 0.0000000000000000e+00 0.0000000000000000e+00
8.7000000000000011e+00 0.0000000000000000e+00 0.0000000000000000e+00
8.8000000000000007e+00 0.0000000000000000e+00 0.0000000000000000e+00
8.9000000000000004e+00 0.0000000000000000e+00 0.0000000000000000e+00
9.0000000000000000e+00 0.0000000000000000e+00 0.0000000000000000e+00
9.0999999999999996e+00 0.0000000000000000e+00 0.0000000000000000e+00
9.2000000000000011e+00 0.0000000000000000e+00 0.0000000000000000e+00
9.3000000000000007e+00 0.0000000000000000e+00 0.0000000000000000e+00
9.4000000000000004e+00 0.0000000000000000e+00 0.0000000000000000e+00
9.5000000000000000e+00 0.0000000000000000e+00 0.0000000000000000e+00
9.6000000000000014e+00 0.0000000000000000e+00 0.0000000000000000e+00
9.7000000000000011e+00 0.0000000000000000e+00 0.0000000000000000e+00
9.8000000000000007e+00 0.0000000000000000e+00 0.0000000000000000e+00
9.9000000000000004e+00 0.0000000000000000e+00 0.0000000000000000e+00
1.0000000000000000e+01 0.0000000000000000e+00 0.0000000000000000e+00

POINT_DATA 101

VECTORS velocity float
6.3602511435381146e+00 0.0000000000000000e+00 0.0000000000000000e+00
6.3601713451583013e+00 0.0000000000000000e+00 0.0000000000000000e+00
6.3600893062634798e+00 0.0000000000000000e+00 0.0000000000000000e+00
6.3600047125718095e+00 0.0000000000000000e+00 0.0000000000000000e+00
6.3599194108145483e+00 0.0000000000000000e+00 0.0000000000000000e+00
6.3598345076430371e+00 0.0000000000000000e+00 0.0000000000000000e+00
6.3597530206902881e+00 0.0000000000000000e+00 0.0000000000000000e+00
6.3596768614345978e+00 0.0000000000000000e+00 0.0000000000000000e+00
6.3596005699281175e+00 0.0000000000000000e+00 0.0000000000000000e+00
6.3595195856737421e+00 0.0000000000000000e+00 0.0000000000000000e+00
6.3594362380997778e+00 0.0000000000000000e+00 0.0000000000000000e+00
6.3593520614975905e+00 0.0000000000000000e+00 0.0000000000000000e+00
6.3592677911900797e+00 0.0000000000000000e+00 0.0000000000000000e+00
6.3591858157214052e+00 0.0000000000000000e+00 0.0000000000000000e+00
6.3591069365559054e+00 0.0000000000000000e+00 0.0000000000000000e+00
6.3590308007933221e+00 0.0000000000000000e+00 0.0000000000000000e+00
6.3589554919086435e+00 0.0000000000000000e+00 0.0000000000000000e+00
6.3588785280802131e+00 0.0000000000000000e+00 0.0000000000000000e+00
6.3588002234817687e+00 0.0000000000000000e+00 0.0000000000000000e+00
6.3587209398799978e+00 0.0000000000000000e+00 0.0000000000000000e+00
6.3586413824849535e+00 0.0000000000000000e+00 0.0000000000000000e+00
6.3585633865256872e+00 0.0000000000000000e+00 0.0000000000000000e+00
6.3584879169493362e+00 0.0000000000000000e+00 0.0000000000000000e+00
6.3584151488750740e+00 0.0000000000000000e+00 0.0000000000000000e+00
6.3583410553998227e+00 0.0000000000000000e+00 0.0000000000000000e+00
6.3582653021414215e+00 0.0000000000000000e+00 0.0000000000000000e+00
6.3581913168736692e+00 0.0000000000000000e+00 0.0000000000000000e+00
6.3581180967921380e+00 0.0000000000000000e+00 0.0000000000000000e+00
6.3580456039004485e+00 0.0000000000000000e+00 0.0000000000000000e+00
6.3579731648111979e+00 0.0000000000000000e+00 0.0000000000000000e+00
6.3579003845607396e+00 0.0000000000000000e+00 0.0000000000000000e+00
6.3578277514133799e+00 0.0000000000000000e+00 0.0000000000000000e+00
6.3577556404904350e+00 0.0000000000000000e+00 0.0000000000000000e+00
6.3576843679649322e+00 0.0000000000000000e+00 0.0000000000000000e+00
6.3576137683332137e+00 0.0000000000000000e+00 0.0000000000000000e+00
6.3575437059585580e+00 0.0000000000000000e+00 0.0000000000000000e+00
6.3574741374577854e+00 0.0000000000000000e+00 0.0000000000000000e+00
6.3574050252485090e+00 0.0000000000000000e+00 0.0000000000000000e+00
6.3573363738696580e+00 0.0000000000000000e+00 0.0000000000000000e+00
6.3572681045500303e+00 0.0000000000000000e+00 0.0000000000000000e+00
6.3572002188231336e+00 0.0000000000000000e+00 0.0000000000000000e+00
6.3571327804126891e+00 0.0000000000000000e+00 0.0000000000000000e+00
6.3570658049430211e+00 0.0000000000000000e+00 0.0000000000000000e+00
6.3569993019870834e+00 0.0000000000000000e+00 0.0000000000000000e+00
6.3569332770608042e+00 0.0000000000000000e+00 0.0000000000000000e+00
6.3568677328424688e+00 0.0000000000000000e+00 0.0000000000000000e+00
6.3568026706124900e+00 0.0000000000000000e+00 0.0000000000000000e+00
6.3567380911989826e+00 0.0000000000000000e+00 0.0000000000000000e+00
6.3566739954031943e+00 0.0000000000000000e+00 0.0000000000000000e+00
6.3566103831294400e+00 0.0000000000000000e+00 0.0000000000000000e+00
6.3565472533761165e+00 0.0000000000000000e+00 0.0000000000000000e+00
6.3564846057467239e+00 0.0000000000000000e+00 0.0000000000000000e+00
6.3564224397380258e+00 0.0000000000000000e+00 0.0000000000000000e+00
6.3563607546130632e+00 0.0000000000000000e+00 0.0000000000000000e+00
6.3562995499530155e+00 0.0000000000000000e+00 0.0000000000000000e+00
6.3562388255569040e+00 0.0000000000000000e+00 0.0000000000000000e+00
6.3561785799319122e+00 0.0000000000000000e+00 0.0000000000000000e+00
6.3561188122132659e+00 0.0000000000000000e+00 0.0000000000000000e+00
6.3560595227738608e+00 0.0000000000000000e+00 0.0000000000000000e+00
6.3560007110266508e+00 0.0000000000000000e+00 0.0000000000000000e+00
6.3559423762726004e+00 0.0000000000000000e+00 0.0000000000000000e+00
6.3558845180297237e+00 0.0000000000000000e+00 0.0000000000000000e+00
6.3558271357833220e+00 0.0000000000000000e+00 0.0000000000000000e+00
6.3557702286124673e+00 0.0000000000000000e+00 0.0000000000000000e+00
6.3557137958919077e+00 0.0000000000000000e+00 0.0000000000000000e+00
6.3556578371161656e+00 0.0000000000000000e+00 0.0000000000000000e+00
6.3556023516212115e+00 0.0000000000000000e+00 0.0000000000000000e+00
6.3555473389687123e+00 0.0000000000000000e+00 0.0000000000000000e+00
6.3554927986995997e+00 0.0000000000000000e+00 0.0000000000000000e+00
6.3554387302186939e+00 0.0000000000000000e+00 0.0000000000000000e+00
6.3553851329786930e+00 0.0000000000000000e+00 0.0000000000000000e+00
6.3553320064462753e+00 0.0000000000000000e+00 0.0000000000000000e+00
6.3552793501048548e+00 0.0000000000000000e+00 0.0000000000000000e+00
6.3552271634997730e+00 0.0000000000000000e+00 0.0000000000000000e+00
6.3551754461887207e+00 0.0000000000000000e+00 0.0000000000000000e+00
6.3551241974979726e+00 0.0000000000000000e+00 0.0000000000000000e+00
6.3550734172483505e+00 0.0000000000000000e+00 0.0000000000000000e+00
6.3550231045652437e+00 0.0000000000000000e+00 0.0000000000000000e+00
6.3549732592512722e+00 0.0000000000000000e+00 0.0000000000000000e+00
6.3549238817326366e+00 0.0000000000000000e+00 0.0000000000000000e+00
6.3548749706346506e+00 0.0000000000000000e+00 0.0000000000000000e+00
6.3548265253543308e+00 0.0000000000000000e+00 0.0000000000000000e+00
6.3547785453787657e+00 0.0000000000000000e+00 0.0000000000000000e+00
6.3547310318506325e+00 0.0000000000000000e+00 0.0000000000000000e+00
6.3546839836080302e+00 0.0000000000000000e+00 0.0000000000000000e+00
6.3546373980459050e+00 0.0000000000000000e+00 0.0000000000000000e+00
6.3545912744043598e+00 0.0000000000000000e+00 0.0000000000000000e+00
6.3545456138299965e+00 0.0000000000000000e+00 0.0000000000000000e+00
6.3545004175925248e+00 0.0000000000000000e+00 0.0000000000000000e+00
6.3544556845620042e+00 0.0000000000000000e+00 0.0000000000000000e+00
6.3544114146106132e+00 0.0000000000000000e+00 0.0000000000000000e+00
6.3543676054315164e+00 0.0000000000000000e+00 0.0000000000000000e+00
6.3543242570675851e+00 0.0000000000000000e+00 0.0000000000000000e+00
6.3542813719104503e+00 0.0000000000000000e+00 0.0000000000000000e+00
6.3542389449818391e+00 0.0000000000000000e+00 0.0000000000000000e+00
6.3541969837900121e+00 0.0000000000000000e+00 0.0000000000000000e+00
6.3541554688080675e+00 0.0000000000000000e+00 0.0000000000000000e+00
6.3541144462682970e+00 0.0000000000000000e+00 0.0000000000000000e+00
6.3540738034220379e+00 0.0000000000000000e+00 0.0000000000000000e+00
6.3540338114364454e+00 0.0000000000000000e+00 0.0000000000000000e+00
6.3539938194508521e+00 0.0000000000000000e+00 0.0000000000000000e+00


SCALARS pressure float
LOOKUP_TABLE default
-6.8432596779458494e+00
-6.7724015013270229e+00
-6.7015433247081964e+00
-6.6307247029332910e+00
-6.5599546786142122e+00
-6.4892434530710883e+00
-6.4185983682324661e+00
-6.3480347536179575e+00
-6.2775650707725648e+00
-6.2071675108148003e+00
-6.1368147510700464e+00
-6.0665090060559717e+00
-5.9962574299431042e+00
-5.9260651193051661e+00
-5.8559441192310677e+00
-5.7859011720151230e+00
-5.7159362812064245e+00
-5.6460402190100716e+00
-5.5761982107358001e+00
-5.5064069569139109e+00
-5.4366669787792041e+00
-5.3669813567917508e+00
-5.2973589440720596e+00
-5.2278062560543823e+00
-5.1583253888445828e+00
-5.0888982591276797e+00
-5.0195177413871992e+00
-4.9501968314747264e+00
-4.8809343262389229e+00
-4.8117292625943140e+00
-4.7425778914867589e+00
-4.6734769178811053e+00
-4.6044271715292178e+00
-4.5354301550024969e+00
-4.4664872417399568e+00
-4.3975975871868034e+00
-4.3287598554184559e+00
-4.2599729832873532e+00
-4.1912360211040181e+00
-4.1225482192756244e+00
-4.0539085884760642e+00
-3.9853165030434177e+00
-3.9167716505804839e+00
-3.8482735776887038e+00
-3.7798217538958148e+00
-3.7114156022957068e+00
-3.6430545154970293e+00
-3.5747378678580972e+00
-3.5064650243023312e+00
-3.4382353450382626e+00
-3.3700481831449371e+00
-3.3019028838999032e+00
-3.2337987915868771e+00
-3.1657352482800261e+00
-3.0977115930105175e+00
-3.0297271640619501e+00
-2.9617812991906933e+00
-2.8938733289146832e+00
-2.8260025831999696e+00
-2.7581683962557872e+00
-2.6903700979830796e+00
-2.6226070153589505e+00
-2.5548784744288890e+00
-2.4871837997787916e+00
-2.4195223126268108e+00
-2.3518933334894396e+00
-2.2842961821944132e+00
-2.2167301766521965e+00
-2.1491946342526527e+00
-2.0816888711869117e+00
-2.0142122017616075e+00
-1.9467639390671216e+00
-1.8793433950639797e+00
-1.8119498806622418e+00
-1.7445827059344823e+00
-1.6772411800039038e+00
-1.6099246098974509e+00
-1.5426323034864751e+00
-1.4753635650652321e+00
-1.4081177002584646e+00
-1.3408940174131616e+00
-1.2736918168277693e+00
-1.2065103993486130e+00
-1.1393490658332559e+00
-1.0722071240264928e+00
-1.0050838727879656e+00
-9.3797860144166767e-01
-8.7089060434993815e-01
-8.0381918535967534e-01
-7.3676365158173995e-01
-6.6972329959233401e-01
-6.0269742715602881e-01
-5.3568532215659492e-01
-4.6868628017390834e-01
-4.0169960865559773e-01
-3.3472458674919403e-01
-2.6776053682380047e-01
-2.0080668450058412e-01
-1.3386248878194298e-01
-6.6926853656769925e-02
0.0000000000000000e+00


SCALARS diameter float
LOOKUP_TABLE default
9.9938076951195587e-01
9.9938873319261434e-01
9.9939533402842518e-01
9.9940240437790484e-01
9.9940923985517127e-01
9.9941602527366635e-01
9.9942205481907109e-01
9.9942691036925491e-01
9.9943168441098107e-01
9.9943833928110537e-01
9.9944553894916321e-01
9.9945269839708617e-01
9.9945982352145657e-01
9.9946651872164149e-01
9.9947239146115863e-01
9.9947799061227693e-01
9.9948342108736743e-01
9.9948967067895134e-01
9.9949627787118089e-01
9.9950310249621277e-01
9.9950999661685258e-01
9.9951660458127056e-01
9.9952258133705185e-01
9.9952818973127899e-01
9.9953395064725592e-01
9.9954092235285785e-01
9.9954709547868559e-01
9.9955319273144849e-01
9.9955929139960531e-01
9.9956541506327579e-01
9.9957183330586896e-01
9.9957824403580220e-01
9.9958462774044388e-01
9.9959086678730391e-01
9.9959705318029324e-01
9.9960323706219545e-01
9.9960941835279571e-01
9.9961559741672523e-01
9.9962177379583717e-01
9.9962795042843033e-01
9.9963414831880426e-01
9.9964033912418493e-01
9.9964652440950985e-01
9.9965270478670065e-01
9.9965888055809116e-01
9.9966505204942269e-01
9.9967121949309667e-01
9.9967738293229813e-01
9.9968354233254408e-01
9.9968969767311988e-01
9.9969584931200117e-01
9.9970199729236509e-01
9.9970814159913035e-01
9.9971428238371918e-01
9.9972041966071623e-01
9.9972655340226724e-01
9.9973268378028068e-01
9.9973881117889407e-01
9.9974493517112628e-01
9.9975105589027835e-01
9.9975717346343973e-01
9.9976328794617775e-01
9.9976939935691733e-01
9.9977550785505709e-01
9.9978161355361339e-01
9.9978771642924158e-01
9.9979381660303157e-01
9.9979991409996627e-01
9.9980600894781257e-01
9.9981210122954245e-01
9.9981819102082581e-01
9.9982427836955268e-01
9.9983036334737874e-01
9.9983644599399091e-01
9.9984252635983906e-01
9.9984860452648394e-01
9.9985468055862836e-01
9.9986075442807132e-01
9.9986682641638713e-01
9.9987289606331553e-01
9.9987896380453034e-01
9.9988502980674576e-01
9.9989109398492426e-01
9.9989715626409348e-01
9.9990321634839496e-01
9.9990927546797270e-01
9.9991533329798121e-01
9.9992138983435419e-01
9.9992744419174784e-01
9.9993349708771639e-01
9.9993954841842159e-01
9.9994559857640397e-01
9.9995164793263058e-01
9.9995769536388335e-01
9.9996374183379033e-01
9.9996978722301444e-01
9.9997583159007164e-01
9.9998187499758939e-01
9.9998791733918257e-01
9.9999395873791674e-01
9.9999999964180020e-01


SCALARS iters float
LOOKUP_TABLE default
3.0000000000000000e+00
3.0000000000000000e+00
3.0000000000000000e+00
3.0000000000000000e+00
3.0000000000000000e+00
3.0000000000000000e+00
3.0000000000000000e+00
3.0000000000000000e+00
3.0000000000000000e+00
3.0000000000000000e+00
3.0000000000000000e+00
3.0000000000000000e+00
3.0000000000000000e+00
3.0000000000000000e+00
3.0000000000000000e+00
3.0000000000000000e+00
3.0000000000000000e+00
3.0000000000000000e+00
3.0000000000000000e+00
3.0000000000000000e+00
3.0000000000000000e+00
3.0000000000000000e+00
3.0000000000000000e+00
3.0000000000000000e+00
3.0000000000000000e+00
3.0000000000000000e+00
3.0000000000000000e+00
3.0000000000000000e+00
3.0000000000000000e+00
3.0000000000000000e+00
3.0000000000000000e+00
3.0000000000000000e+00
3.0000000000000000e+00
3.0000000000000000e+00
3.0000000000000000e+00
3.0000000000000000e+00
3.0000000000000000e+00
3.0000000000000000e+00
3.0000000000000000e+00
3.0000000000000000e+00
3.0000000000000000e+00
3.0000000000000000e+00
3.0000000000000000e+00
3.0000000000000000e+00
3.0000000000000000e+00
3.0000000000000000e+00
3.0000000000000000e+00
3.0000000000000000e+00
3.0000000000000000e+00
3.0000000000000000e+00
3.0000000000000000e+00
3.0000000000000000e+00
3.0000000000000000e+00
3.0000000000000000e+00
3.0000000000000000e+00
3.0000000000000000e+00
3.0000000000000000e+00
3.0000000000000000e+00
3.0000000000000000e+00
3.0000000000000000e+00
3.0000000000000000e+00
3.0000000000000000e+00
3.0000000000000000e+00
3.0000000000000000e+00
3.0000000000000000e+00
3.0000000000000000e+00
3.0000000000000000e+00
3.0000000000000000e+00
3.0000000000000000e+00
3.0000000000000000e+00
3.0000000000000000e+00
3.0000000000000000e+00
3.0000000000000000e+00
3.0000000000000000e+00
3.0000000000000000e+00
3.0000000000000000e+00
3.0000000000000000e+00
3.0000000000000000e+00
3.0000000000000000e+00
3.0000000000000000e+00
3.0000000000000000e+00
3.0000000000000000e+00
3.0000000000000000e+00
3.0000000000000000e+00
3.0000000000000000e+00
3.0000000000000000e+00
3.0000000000000000e+00
3.0000000000000000e+00
3.0000000000000000e+00
3.0000000000000000e+00
3.0000000000000000e+00
3.0000000000000000e+00
3.0000000000000000e+00
3.0000000000000000e+00
3.0000000000000000e+00
3.0000000000000000e+00
3.0000000000000000e+00
3.0000000000000000e+00
3.0000000000000000e+00
3.0000000000000000e+00
3.0000000000000000e+00


