# vtk DataFile Version 2.0

ASCII

DATASET UNSTRUCTURED_GRID

POINTS 101 float

0.0000000000000000e+00 0.0000000000000000e+00 0.0000000000000000e+00
1.0000000000000001e-01 0.0000000000000000e+00 0.0000000000000000e+00
2.0000000000000001e-01 0.0000000000000000e+00 0.0000000000000000e+00
3.0000000000000004e-01 0.0000000000000000e+00 0.0000000000000000e+00
4.0000000000000002e-01 0.0000000000000000e+00 0.0000000000000000e+00
5.0000000000000000e-01 0.0000000000000000e+00 0.0000000000000000e+00
6.0000000000000009e-01 0.0000000000000000e+00 0.0000000000000000e+00
7.0000000000000007e-01 0.0000000000000000e+00 0.0000000000000000e+00
8.0000000000000004e-01 0.0000000000000000e+00 0.0000000000000000e+00
9.0000000000000002e-01 0.0000000000000000e+00 0.0000000000000000e+00
1.0000000000000000e+00 0.0000000000000000e+00 0.0000000000000000e+00
1.1000000000000001e+00 0.0000000000000000e+00 0.0000000000000000e+00
1.2000000000000002e+00 0.0000000000000000e+00 0.0000000000000000e+00
1.3000000000000000e+00 0.0000000000000000e+00 0.0000000000000000e+00
1.4000000000000001e+00 0.0000000000000000e+00 0.0000000000000000e+00
1.5000000000000000e+00 0.0000000000000000e+00 0.0000000000000000e+00
1.6000000000000001e+00 0.0000000000000000e+00 0.0000000000000000e+00
1.7000000000000002e+00 0.0000000000000000e+00 0.0000000000000000e+00
1.8000000000000000e+00 0.0000000000000000e+00 0.0000000000000000e+00
1.9000000000000001e+00 0.0000000000000000e+00 0.0000000000000000e+00
2.0000000000000000e+00 0.0000000000000000e+00 0.0000000000000000e+00
2.1000000000000001e+00 0.0000000000000000e+00 0.0000000000000000e+00
2.2000000000000002e+00 0.0000000000000000e+00 0.0000000000000000e+00
2.3000000000000003e+00 0.0000000000000000e+00 0.0000000000000000e+00
2.4000000000000004e+00 0.0000000000000000e+00 0.0000000000000000e+00
2.5000000000000000e+00 0.0000000000000000e+00 0.0000000000000000e+00
2.6000000000000001e+00 0.0000000000000000e+00 0.0000000000000000e+00
2.7000000000000002e+00 0.0000000000000000e+00 0.0000000000000000e+00
2.8000000000000003e+00 0.0000000000000000e+00 0.0000000000000000e+00
2.9000000000000004e+00 0.0000000000000000e+00 0.0000000000000000e+00
3.0000000000000000e+00 0.0000000000000000e+00 0.0000000000000000e+00
3.1000000000000001e+00 0.0000000000000000e+00 0.0000000000000000e+00
3.2000000000000002e+00 0.0000000000000000e+00 0.0000000000000000e+00
3.3000000000000003e+00 0.0000000000000000e+00 0.0000000000000000e+00
3.4000000000000004e+00 0.0000000000000000e+00 0.0000000000000000e+00
3.5000000000000000e+00 0.0000000000000000e+00 0.0000000000000000e+00
3.6000000000000001e+00 0.0000000000000000e+00 0.0000000000000000e+00
3.7000000000000002e+00 0.0000000000000000e+00 0.0000000000000000e+00
3.8000000000000003e+00 0.0000000000000000e+00 0.0000000000000000e+00
3.9000000000000004e+00 0.0000000000000000e+00 0.0000000000000000e+00
4.0000000000000000e+00 0.0000000000000000e+00 0.0000000000000000e+00
4.1000000000000005e+00 0.0000000000000000e+00 0.0000000000000000e+00
4.2000000000000002e+00 0.0000000000000000e+00 0.0000000000000000e+00
4.2999999999999998e+00 0.0000000000000000e+00 0.0000000000000000e+00
4.4000000000000004e+00 0.0000000000000000e+00 0.0000000000000000e+00
4.5000000000000000e+00 0.0000000000000000e+00 0.0000000000000000e+00
4.6000000000000005e+00 0.0000000000000000e+00 0.0000000000000000e+00
4.7000000000000002e+00 0.0000000000000000e+00 0.0000000000000000e+00
4.8000000000000007e+00 0.0000000000000000e+00 0.0000000000000000e+00
4.9000000000000004e+00 0.0000000000000000e+00 0.0000000000000000e+00
5.0000000000000000e+00 0.0000000000000000e+00 0.0000000000000000e+00
5.1000000000000005e+00 0.0000000000000000e+00 0.0000000000000000e+00
5.2000000000000002e+00 0.0000000000000000e+00 0.0000000000000000e+00
5.3000000000000007e+00 0.0000000000000000e+00 0.0000000000000000e+00
5.4000000000000004e+00 0.0000000000000000e+00 0.0000000000000000e+00
5.5000000000000000e+00 0.0000000000000000e+00 0.0000000000000000e+00
5.6000000000000005e+00 0.0000000000000000e+00 0.0000000000000000e+00
5.7000000000000002e+00 0.0000000000000000e+00 0.0000000000000000e+00
5.8000000000000007e+00 0.0000000000000000e+00 0.0000000000000000e+00
5.9000000000000004e+00 0.0000000000000000e+00 0.0000000000000000e+00
6.0000000000000000e+00 0.0000000000000000e+00 0.0000000000000000e+00
6.1000000000000005e+00 0.0000000000000000e+00 0.0000000000000000e+00
6.2000000000000002e+00 0.0000000000000000e+00 0.0000000000000000e+00
6.3000000000000007e+00 0.0000000000000000e+00 0.0000000000000000e+00
6.4000000000000004e+00 0.0000000000000000e+00 0.0000000000000000e+00
6.5000000000000000e+00 0.0000000000000000e+00 0.0000000000000000e+00
6.6000000000000005e+00 0.0000000000000000e+00 0.0000000000000000e+00
6.7000000000000002e+00 0.0000000000000000e+00 0.0000000000000000e+00
6.8000000000000007e+00 0.0000000000000000e+00 0.0000000000000000e+00
6.9000000000000004e+00 0.0000000000000000e+00 0.0000000000000000e+00
7.0000000000000000e+00 0.0000000000000000e+00 0.0000000000000000e+00
7.1000000000000005e+00 0.0000000000000000e+00 0.0000000000000000e+00
7.2000000000000002e+00 0.0000000000000000e+00 0.0000000000000000e+00
7.3000000000000007e+00 0.0000000000000000e+00 0.0000000000000000e+00
7.4000000000000004e+00 0.0000000000000000e+00 0.0000000000000000e+00
7.5000000000000000e+00 0.0000000000000000e+00 0.0000000000000000e+00
7.6000000000000005e+00 0.0000000000000000e+00 0.0000000000000000e+00
7.7000000000000002e+00 0.0000000000000000e+00 0.0000000000000000e+00
7.8000000000000007e+00 0.0000000000000000e+00 0.0000000000000000e+00
7.9000000000000004e+00 0.0000000000000000e+00 0.0000000000000000e+00
8.0000000000000000e+00 0.0000000000000000e+00 0.0000000000000000e+00
8.0999999999999996e+00 0.0000000000000000e+00 0.0000000000000000e+00
8.2000000000000011e+00 0.0000000000000000e+00 0.0000000000000000e+00
8.3000000000000007e+00 0.0000000000000000e+00 0.0000000000000000e+00
8.4000000000000004e+00 0.0000000000000000e+00 0.0000000000000000e+00
8.5000000000000000e+00 0.0000000000000000e+00 0.0000000000000000e+00
8.5999999999999996e+00 0.0000000000000000e+00 0.0000000000000000e+00
8.7000000000000011e+00 0.0000000000000000e+00 0.0000000000000000e+00
8.8000000000000007e+00 0.0000000000000000e+00 0.0000000000000000e+00
8.9000000000000004e+00 0.0000000000000000e+00 0.0000000000000000e+00
9.0000000000000000e+00 0.0000000000000000e+00 0.0000000000000000e+00
9.0999999999999996e+00 0.0000000000000000e+00 0.0000000000000000e+00
9.2000000000000011e+00 0.0000000000000000e+00 0.0000000000000000e+00
9.3000000000000007e+00 0.0000000000000000e+00 0.0000000000000000e+00
9.4000000000000004e+00 0.0000000000000000e+00 0.0000000000000000e+00
9.5000000000000000e+00 0.0000000000000000e+00 0.0000000000000000e+00
9.6000000000000014e+00 0.0000000000000000e+00 0.0000000000000000e+00
9.7000000000000011e+00 0.0000000000000000e+00 0.0000000000000000e+00
9.8000000000000007e+00 0.0000000000000000e+00 0.0000000000000000e+00
9.9000000000000004e+00 0.0000000000000000e+00 0.0000000000000000e+00
1.0000000000000000e+01 0.0000000000000000e+00 0.0000000000000000e+00

POINT_DATA 101

VECTORS velocity float
7.3130184414052071e+00 0.0000000000000000e+00 0.0000000000000000e+00
7.3142528584696933e+00 0.0000000000000000e+00 0.0000000000000000e+00
7.3154647972047373e+00 0.0000000000000000e+00 0.0000000000000000e+00
7.3166558956811345e+00 0.0000000000000000e+00 0.0000000000000000e+00
7.3178272656677965e+00 0.0000000000000000e+00 0.0000000000000000e+00
7.3189839215326975e+00 0.0000000000000000e+00 0.0000000000000000e+00
7.3201328081721337e+00 0.0000000000000000e+00 0.0000000000000000e+00
7.3212709109418137e+00 0.0000000000000000e+00 0.0000000000000000e+00
7.3223925841130511e+00 0.0000000000000000e+00 0.0000000000000000e+00
7.3234980360718263e+00 0.0000000000000000e+00 0.0000000000000000e+00
7.3245887695685328e+00 0.0000000000000000e+00 0.0000000000000000e+00
7.3256654586742407e+00 0.0000000000000000e+00 0.0000000000000000e+00
7.3267308453912401e+00 0.0000000000000000e+00 0.0000000000000000e+00
7.3277898857324661e+00 0.0000000000000000e+00 0.0000000000000000e+00
7.3288414261646100e+00 0.0000000000000000e+00 0.0000000000000000e+00
7.3298830710795277e+00 0.0000000000000000e+00 0.0000000000000000e+00
7.3309100868344919e+00 0.0000000000000000e+00 0.0000000000000000e+00
7.3319204102662807e+00 0.0000000000000000e+00 0.0000000000000000e+00
7.3329191059866972e+00 0.0000000000000000e+00 0.0000000000000000e+00
7.3339079863183798e+00 0.0000000000000000e+00 0.0000000000000000e+00
7.3348854014589575e+00 0.0000000000000000e+00 0.0000000000000000e+00
7.3358501214912009e+00 0.0000000000000000e+00 0.0000000000000000e+00
7.3368018214927471e+00 0.0000000000000000e+00 0.0000000000000000e+00
7.3377409503606570e+00 0.0000000000000000e+00 0.0000000000000000e+00
7.3386747491534727e+00 0.0000000000000000e+00 0.0000000000000000e+00
7.3396008738769734e+00 0.0000000000000000e+00 0.0000000000000000e+00
7.3405119694955481e+00 0.0000000000000000e+00 0.0000000000000000e+00
7.3414107596536002e+00 0.0000000000000000e+00 0.0000000000000000e+00
7.3422977024190406e+00 0.0000000000000000e+00 0.0000000000000000e+00
7.3431716340058815e+00 0.0000000000000000e+00 0.0000000000000000e+00
7.3440319674906078e+00 0.0000000000000000e+00 0.0000000000000000e+00
7.3448796233567100e+00 0.0000000000000000e+00 0.0000000000000000e+00
7.3457151383929657e+00 0.0000000000000000e+00 0.0000000000000000e+00
7.3465391335099950e+00 0.0000000000000000e+00 0.0000000000000000e+00
7.3473513763490290e+00 0.0000000000000000e+00 0.0000000000000000e+00
7.3481516678542631e+00 0.0000000000000000e+00 0.0000000000000000e+00
7.3489398704238837e+00 0.0000000000000000e+00 0.0000000000000000e+00
7.3497161110433744e+00 0.0000000000000000e+00 0.0000000000000000e+00
7.3504798611206290e+00 0.0000000000000000e+00 0.0000000000000000e+00
7.3512327499910484e+00 0.0000000000000000e+00 0.0000000000000000e+00
7.3519760105092349e+00 0.0000000000000000e+00 0.0000000000000000e+00
7.3527080512707839e+00 0.0000000000000000e+00 0.0000000000000000e+00
7.3534285890035331e+00 0.0000000000000000e+00 0.0000000000000000e+00
7.3541374406216482e+00 0.0000000000000000e+00 0.0000000000000000e+00
7.3548344849326304e+00 0.0000000000000000e+00 0.0000000000000000e+00
7.3555196398071452e+00 0.0000000000000000e+00 0.0000000000000000e+00
7.3561928478443948e+00 0.0000000000000000e+00 0.0000000000000000e+00
7.3568540673642895e+00 0.0000000000000000e+00 0.0000000000000000e+00
7.3575032675624321e+00 0.0000000000000000e+00 0.0000000000000000e+00
7.3581404238215926e+00 0.0000000000000000e+00 0.0000000000000000e+00
7.3587655153010090e+00 0.0000000000000000e+00 0.0000000000000000e+00
7.3593785244980916e+00 0.0000000000000000e+00 0.0000000000000000e+00
7.3599794350014633e+00 0.0000000000000000e+00 0.0000000000000000e+00
7.3605682319622998e+00 0.0000000000000000e+00 0.0000000000000000e+00
7.3611449017953134e+00 0.0000000000000000e+00 0.0000000000000000e+00
7.3617094309288706e+00 0.0000000000000000e+00 0.0000000000000000e+00
7.3622618058831417e+00 0.0000000000000000e+00 0.0000000000000000e+00
7.3628020145465580e+00 0.0000000000000000e+00 0.0000000000000000e+00
7.3633300454404882e+00 0.0000000000000000e+00 0.0000000000000000e+00
7.3638458865435927e+00 0.0000000000000000e+00 0.0000000000000000e+00
7.3643495262681178e+00 0.0000000000000000e+00 0.0000000000000000e+00
7.3648409540020534e+00 0.0000000000000000e+00 0.0000000000000000e+00
7.3653201590493813e+00 0.0000000000000000e+00 0.0000000000000000e+00
7.3657871304146347e+00 0.0000000000000000e+00 0.0000000000000000e+00
7.3662418577856847e+00 0.0000000000000000e+00 0.0000000000000000e+00
7.3666843311121291e+00 0.0000000000000000e+00 0.0000000000000000e+00
7.3671145405530973e+00 0.0000000000000000e+00 0.0000000000000000e+00
7.3675324766786066e+00 0.0000000000000000e+00 0.0000000000000000e+00
7.3679381302964746e+00 0.0000000000000000e+00 0.0000000000000000e+00
7.3683314924345380e+00 0.0000000000000000e+00 0.0000000000000000e+00
7.3687125543453824e+00 0.0000000000000000e+00 0.0000000000000000e+00
7.3690813076423813e+00 0.0000000000000000e+00 0.0000000000000000e+00
7.3694377441241246e+00 0.0000000000000000e+00 0.0000000000000000e+00
7.3697818558994550e+00 0.0000000000000000e+00 0.0000000000000000e+00
7.3701136355007222e+00 0.0000000000000000e+00 0.0000000000000000e+00
7.3704330753240006e+00 0.0000000000000000e+00 0.0000000000000000e+00
7.3707401685468632e+00 0.0000000000000000e+00 0.0000000000000000e+00
7.3710349080256803e+00 0.0000000000000000e+00 0.0000000000000000e+00
7.3713172875847528e+00 0.0000000000000000e+00 0.0000000000000000e+00
7.3715873015520650e+00 0.0000000000000000e+00 0.0000000000000000e+00
7.3718449432983615e+00 0.0000000000000000e+00 0.0000000000000000e+00
7.3720902073042742e+00 0.0000000000000000e+00 0.0000000000000000e+00
7.3723230879934984e+00 0.0000000000000000e+00 0.0000000000000000e+00
7.3725435806697437e+00 0.0000000000000000e+00 0.0000000000000000e+00
7.3727516797921400e+00 0.0000000000000000e+00 0.0000000000000000e+00
7.3729473807433310e+00 0.0000000000000000e+00 0.0000000000000000e+00
7.3731306796789742e+00 0.0000000000000000e+00 0.0000000000000000e+00
7.3733015698796267e+00 0.0000000000000000e+00 0.0000000000000000e+00
7.3734600485872290e+00 0.0000000000000000e+00 0.0000000000000000e+00
7.3736061122558620e+00 0.0000000000000000e+00 0.0000000000000000e+00
7.3737397613708131e+00 0.0000000000000000e+00 0.0000000000000000e+00
7.3738609895701677e+00 0.0000000000000000e+00 0.0000000000000000e+00
7.3739697977611076e+00 0.0000000000000000e+00 0.0000000000000000e+00
7.3740661690151228e+00 0.0000000000000000e+00 0.0000000000000000e+00
7.3741501437725585e+00 0.0000000000000000e+00 0.0000000000000000e+00
7.3742216025810023e+00 0.0000000000000000e+00 0.0000000000000000e+00
7.3742808625719096e+00 0.0000000000000000e+00 0.0000000000000000e+00
7.3743270588132059e+00 0.0000000000000000e+00 0.0000000000000000e+00
7.3743625254678165e+00 0.0000000000000000e+00 0.0000000000000000e+00
7.3743809508934364e+00 0.0000000000000000e+00 0.0000000000000000e+00
7.3743993763190563e+00 0.0000000000000000e+00 0.0000000000000000e+00


SCALARS pressure float
LOOKUP_TABLE default
-3.2055631100663802e+00
-3.1686411792490103e+00
-3.1317192484316410e+00
-3.0948801232225294e+00
-3.0581666714872346e+00
-3.0216012714432026e+00
-2.9852159180655211e+00
-2.9490554296596083e+00
-2.9131181844848468e+00
-2.8773724760594921e+00
-2.8418061369614116e+00
-2.8064194641580906e+00
-2.7712127993872144e+00
-2.7361973644088411e+00
-2.7013999043746963e+00
-2.6668227971576832e+00
-2.6324533785301774e+00
-2.5982615738681458e+00
-2.5642232528230045e+00
-2.5303522297238077e+00
-2.4966611760421955e+00
-2.4631449620797592e+00
-2.4297932822643760e+00
-2.3965971772319055e+00
-2.3635509595545736e+00
-2.3306857512592707e+00
-2.2980008141452082e+00
-2.2654576581862305e+00
-2.2330528798430351e+00
-2.2007847975739807e+00
-2.1686447275897907e+00
-2.1366243192371179e+00
-2.1047224745701647e+00
-2.0729388120762389e+00
-2.0412733451831833e+00
-2.0097221943480670e+00
-1.9782803739781665e+00
-1.9469427956329828e+00
-1.9157056417499811e+00
-1.8845623227652362e+00
-1.8535158666596239e+00
-1.8225710148871439e+00
-1.7917193738874613e+00
-1.7609540163435839e+00
-1.7302689595494827e+00
-1.6996588148137877e+00
-1.6691185644594695e+00
-1.6386434224287245e+00
-1.6082287486742730e+00
-1.5778699978312516e+00
-1.5475626803394746e+00
-1.5173023386381341e+00
-1.4870845375275525e+00
-1.4569048508921087e+00
-1.4267588600348817e+00
-1.3966421516363960e+00
-1.3665503110247432e+00
-1.3364789205421763e+00
-1.3064235652205980e+00
-1.2763798314790322e+00
-1.2463433010970573e+00
-1.2163095539613171e+00
-1.1862741719454759e+00
-1.1562327351798145e+00
-1.1261808194836793e+00
-1.0961140003382790e+00
-1.0660278524212603e+00
-1.0359179493046435e+00
-1.0057798643567391e+00
-9.7560917036819672e-01
-9.4540143948553457e-01
-9.1515224328578626e-01
-8.8485715363782591e-01
-8.5451174228956917e-01
-8.2411158129637574e-01
-7.9365224396906509e-01
-7.6312930226050946e-01
-7.3253833053726458e-01
-7.0187490158445454e-01
-6.7113459193978997e-01
-6.4031298204649190e-01
-6.0940564796121055e-01
-5.7840816915282434e-01
-5.4731612584340428e-01
-5.1612510288287494e-01
-4.8483068215111730e-01
-4.5342844905115426e-01
-4.2191399329369084e-01
-3.9028289232125790e-01
-3.5853074033625415e-01
-3.2665313325879020e-01
-2.9464568783788697e-01
-2.6250399492919380e-01
-2.3022367313277242e-01
-1.9780026268036713e-01
-1.6522956132467667e-01
-1.3250666955241222e-01
-9.9628594621934574e-02
-6.6587197313881866e-02
-3.3388259428504277e-02
0.0000000000000000e+00


SCALARS diameter float
LOOKUP_TABLE default
9.9970597859955690e-01
9.9971126555178613e-01
9.9971531794280766e-01
9.9971932363602090e-01
9.9972361023897849e-01
9.9972795618482369e-01
9.9973055480161155e-01
9.9973240306212618e-01
9.9973544127241498e-01
9.9973930228092212e-01
9.9974354666445109e-01
9.9974786203891308e-01
9.9975207472412975e-01
9.9975491330430732e-01
9.9975673990896607e-01
9.9975865735449654e-01
9.9976108704030953e-01
9.9976512648380267e-01
9.9976886295062695e-01
9.9977190147710837e-01
9.9977486371934243e-01
9.9977823068654392e-01
9.9978186086371390e-01
9.9978568498948173e-01
9.9978838253546909e-01
9.9978922883464660e-01
9.9979190847265975e-01
9.9979462760143389e-01
9.9979736371801042e-01
9.9980016358589774e-01
9.9980348711353184e-01
9.9980682704761714e-01
9.9981020235974782e-01
9.9981341103712196e-01
9.9981655284988102e-01
9.9981971172948869e-01
9.9982288792054841e-01
9.9982608161318065e-01
9.9982929268982557e-01
9.9983247416448373e-01
9.9983490889918769e-01
9.9983735600370771e-01
9.9983981692505186e-01
9.9984229160391780e-01
9.9984477994286314e-01
9.9984728186766414e-01
9.9984979724866363e-01
9.9985232590442996e-01
9.9985486770532050e-01
9.9985742224096952e-01
9.9985998955235755e-01
9.9986256924548633e-01
9.9986516121279878e-01
9.9986776528083754e-01
9.9987038115598337e-01
9.9987300865503670e-01
9.9987564776792104e-01
9.9987829824943308e-01
9.9988095967579105e-01
9.9988363193137131e-01
9.9988631490800117e-01
9.9988900827638438e-01
9.9989171176247149e-01
9.9989442532610628e-01
9.9989714877594316e-01
9.9989988186462819e-01
9.9990262442832445e-01
9.9990537622819298e-01
9.9990813704858816e-01
9.9991090668127125e-01
9.9991368493328414e-01
9.9991647159871089e-01
9.9991926645458606e-01
9.9992206934136885e-01
9.9992487998053381e-01
9.9992769822818850e-01
9.9993052388740411e-01
9.9993335664541716e-01
9.9993619650488819e-01
9.9993904275872803e-01
9.9994189572959424e-01
9.9994475490332257e-01
9.9994762027459372e-01
9.9995049140160774e-01
9.9995336822767700e-01
9.9995625066560068e-01
9.9995913816990445e-01
9.9996203109130066e-01
9.9996492920132074e-01
9.9996783180993798e-01
9.9997073864280372e-01
9.9997364883462003e-01
9.9997656384295197e-01
9.9997948223855415e-01
9.9998240434102448e-01
9.9998532970632659e-01
9.9998825825466364e-01
9.9999118972821122e-01
9.9999412390464248e-01
9.9999706049847970e-01
9.9999999987902222e-01


SCALARS iters float
LOOKUP_TABLE default
5.0000000000000000e+00
5.0000000000000000e+00
5.0000000000000000e+00
5.0000000000000000e+00
5.0000000000000000e+00
5.0000000000000000e+00
5.0000000000000000e+00
5.0000000000000000e+00
5.0000000000000000e+00
5.0000000000000000e+00
5.0000000000000000e+00
5.0000000000000000e+00
5.0000000000000000e+00
5.0000000000000000e+00
5.0000000000000000e+00
5.0000000000000000e+00
5.0000000000000000e+00
5.0000000000000000e+00
5.0000000000000000e+00
5.0000000000000000e+00
5.0000000000000000e+00
5.0000000000000000e+00
5.0000000000000000e+00
5.0000000000000000e+00
5.0000000000000000e+00
5.0000000000000000e+00
5.0000000000000000e+00
5.0000000000000000e+00
5.0000000000000000e+00
5.0000000000000000e+00
5.0000000000000000e+00
5.0000000000000000e+00
5.0000000000000000e+00
5.0000000000000000e+00
5.0000000000000000e+00
5.0000000000000000e+00
5.0000000000000000e+00
5.0000000000000000e+00
5.0000000000000000e+00
5.0000000000000000e+00
5.0000000000000000e+00
5.0000000000000000e+00
5.0000000000000000e+00
5.0000000000000000e+00
5.0000000000000000e+00
5.0000000000000000e+00
5.0000000000000000e+00
5.0000000000000000e+00
5.0000000000000000e+00
5.0000000000000000e+00
5.0000000000000000e+00
5.0000000000000000e+00
5.0000000000000000e+00
5.0000000000000000e+00
5.0000000000000000e+00
5.0000000000000000e+00
5.0000000000000000e+00
5.0000000000000000e+00
5.0000000000000000e+00
5.0000000000000000e+00
5.0000000000000000e+00
5.0000000000000000e+00
5.0000000000000000e+00
5.0000000000000000e+00
5.0000000000000000e+00
5.0000000000000000e+00
5.0000000000000000e+00
5.0000000000000000e+00
5.0000000000000000e+00
5.0000000000000000e+00
5.0000000000000000e+00
5.0000000000000000e+00
5.0000000000000000e+00
5.0000000000000000e+00
5.0000000000000000e+00
5.0000000000000000e+00
5.0000000000000000e+00
5.0000000000000000e+00
5.0000000000000000e+00
5.0000000000000000e+00
5.0000000000000000e+00
5.0000000000000000e+00
5.0000000000000000e+00
5.0000000000000000e+00
5.0000000000000000e+00
5.0000000000000000e+00
5.0000000000000000e+00
5.0000000000000000e+00
5.0000000000000000e+00
5.0000000000000000e+00
5.0000000000000000e+00
5.0000000000000000e+00
5.0000000000000000e+00
5.0000000000000000e+00
5.0000000000000000e+00
5.0000000000000000e+00
5.0000000000000000e+00
5.0000000000000000e+00
5.0000000000000000e+00
5.0000000000000000e+00
5.0000000000000000e+00


