# vtk DataFile Version 2.0

ASCII

DATASET UNSTRUCTURED_GRID

POINTS 101 float

0.0000000000000000e+00 0.0000000000000000e+00 0.0000000000000000e+00
1.0000000000000001e-01 0.0000000000000000e+00 0.0000000000000000e+00
2.0000000000000001e-01 0.0000000000000000e+00 0.0000000000000000e+00
3.0000000000000004e-01 0.0000000000000000e+00 0.0000000000000000e+00
4.0000000000000002e-01 0.0000000000000000e+00 0.0000000000000000e+00
5.0000000000000000e-01 0.0000000000000000e+00 0.0000000000000000e+00
6.0000000000000009e-01 0.0000000000000000e+00 0.0000000000000000e+00
7.0000000000000007e-01 0.0000000000000000e+00 0.0000000000000000e+00
8.0000000000000004e-01 0.0000000000000000e+00 0.0000000000000000e+00
9.0000000000000002e-01 0.0000000000000000e+00 0.0000000000000000e+00
1.0000000000000000e+00 0.0000000000000000e+00 0.0000000000000000e+00
1.1000000000000001e+00 0.0000000000000000e+00 0.0000000000000000e+00
1.2000000000000002e+00 0.0000000000000000e+00 0.0000000000000000e+00
1.3000000000000000e+00 0.0000000000000000e+00 0.0000000000000000e+00
1.4000000000000001e+00 0.0000000000000000e+00 0.0000000000000000e+00
1.5000000000000000e+00 0.0000000000000000e+00 0.0000000000000000e+00
1.6000000000000001e+00 0.0000000000000000e+00 0.0000000000000000e+00
1.7000000000000002e+00 0.0000000000000000e+00 0.0000000000000000e+00
1.8000000000000000e+00 0.0000000000000000e+00 0.0000000000000000e+00
1.9000000000000001e+00 0.0000000000000000e+00 0.0000000000000000e+00
2.0000000000000000e+00 0.0000000000000000e+00 0.0000000000000000e+00
2.1000000000000001e+00 0.0000000000000000e+00 0.0000000000000000e+00
2.2000000000000002e+00 0.0000000000000000e+00 0.0000000000000000e+00
2.3000000000000003e+00 0.0000000000000000e+00 0.0000000000000000e+00
2.4000000000000004e+00 0.0000000000000000e+00 0.0000000000000000e+00
2.5000000000000000e+00 0.0000000000000000e+00 0.0000000000000000e+00
2.6000000000000001e+00 0.0000000000000000e+00 0.0000000000000000e+00
2.7000000000000002e+00 0.0000000000000000e+00 0.0000000000000000e+00
2.8000000000000003e+00 0.0000000000000000e+00 0.0000000000000000e+00
2.9000000000000004e+00 0.0000000000000000e+00 0.0000000000000000e+00
3.0000000000000000e+00 0.0000000000000000e+00 0.0000000000000000e+00
3.1000000000000001e+00 0.0000000000000000e+00 0.0000000000000000e+00
3.2000000000000002e+00 0.0000000000000000e+00 0.0000000000000000e+00
3.3000000000000003e+00 0.0000000000000000e+00 0.0000000000000000e+00
3.4000000000000004e+00 0.0000000000000000e+00 0.0000000000000000e+00
3.5000000000000000e+00 0.0000000000000000e+00 0.0000000000000000e+00
3.6000000000000001e+00 0.0000000000000000e+00 0.0000000000000000e+00
3.7000000000000002e+00 0.0000000000000000e+00 0.0000000000000000e+00
3.8000000000000003e+00 0.0000000000000000e+00 0.0000000000000000e+00
3.9000000000000004e+00 0.0000000000000000e+00 0.0000000000000000e+00
4.0000000000000000e+00 0.0000000000000000e+00 0.0000000000000000e+00
4.1000000000000005e+00 0.0000000000000000e+00 0.0000000000000000e+00
4.2000000000000002e+00 0.0000000000000000e+00 0.0000000000000000e+00
4.2999999999999998e+00 0.0000000000000000e+00 0.0000000000000000e+00
4.4000000000000004e+00 0.0000000000000000e+00 0.0000000000000000e+00
4.5000000000000000e+00 0.0000000000000000e+00 0.0000000000000000e+00
4.6000000000000005e+00 0.0000000000000000e+00 0.0000000000000000e+00
4.7000000000000002e+00 0.0000000000000000e+00 0.0000000000000000e+00
4.8000000000000007e+00 0.0000000000000000e+00 0.0000000000000000e+00
4.9000000000000004e+00 0.0000000000000000e+00 0.0000000000000000e+00
5.0000000000000000e+00 0.0000000000000000e+00 0.0000000000000000e+00
5.1000000000000005e+00 0.0000000000000000e+00 0.0000000000000000e+00
5.2000000000000002e+00 0.0000000000000000e+00 0.0000000000000000e+00
5.3000000000000007e+00 0.0000000000000000e+00 0.0000000000000000e+00
5.4000000000000004e+00 0.0000000000000000e+00 0.0000000000000000e+00
5.5000000000000000e+00 0.0000000000000000e+00 0.0000000000000000e+00
5.6000000000000005e+00 0.0000000000000000e+00 0.0000000000000000e+00
5.7000000000000002e+00 0.0000000000000000e+00 0.0000000000000000e+00
5.8000000000000007e+00 0.0000000000000000e+00 0.0000000000000000e+00
5.9000000000000004e+00 0.0000000000000000e+00 0.0000000000000000e+00
6.0000000000000000e+00 0.0000000000000000e+00 0.0000000000000000e+00
6.1000000000000005e+00 0.0000000000000000e+00 0.0000000000000000e+00
6.2000000000000002e+00 0.0000000000000000e+00 0.0000000000000000e+00
6.3000000000000007e+00 0.0000000000000000e+00 0.0000000000000000e+00
6.4000000000000004e+00 0.0000000000000000e+00 0.0000000000000000e+00
6.5000000000000000e+00 0.0000000000000000e+00 0.0000000000000000e+00
6.6000000000000005e+00 0.0000000000000000e+00 0.0000000000000000e+00
6.7000000000000002e+00 0.0000000000000000e+00 0.0000000000000000e+00
6.8000000000000007e+00 0.0000000000000000e+00 0.0000000000000000e+00
6.9000000000000004e+00 0.0000000000000000e+00 0.0000000000000000e+00
7.0000000000000000e+00 0.0000000000000000e+00 0.0000000000000000e+00
7.1000000000000005e+00 0.0000000000000000e+00 0.0000000000000000e+00
7.2000000000000002e+00 0.0000000000000000e+00 0.0000000000000000e+00
7.3000000000000007e+00 0.0000000000000000e+00 0.0000000000000000e+00
7.4000000000000004e+00 0.0000000000000000e+00 0.0000000000000000e+00
7.5000000000000000e+00 0.0000000000000000e+00 0.0000000000000000e+00
7.6000000000000005e+00 0.0000000000000000e+00 0.0000000000000000e+00
7.7000000000000002e+00 0.0000000000000000e+00 0.0000000000000000e+00
7.8000000000000007e+00 0.0000000000000000e+00 0.0000000000000000e+00
7.9000000000000004e+00 0.0000000000000000e+00 0.0000000000000000e+00
8.0000000000000000e+00 0.0000000000000000e+00 0.0000000000000000e+00
8.0999999999999996e+00 0.0000000000000000e+00 0.0000000000000000e+00
8.2000000000000011e+00 0.0000000000000000e+00 0.0000000000000000e+00
8.3000000000000007e+00 0.0000000000000000e+00 0.0000000000000000e+00
8.4000000000000004e+00 0.0000000000000000e+00 0.0000000000000000e+00
8.5000000000000000e+00 0.0000000000000000e+00 0.0000000000000000e+00
8.5999999999999996e+00 0.0000000000000000e+00 0.0000000000000000e+00
8.7000000000000011e+00 0.0000000000000000e+00 0.0000000000000000e+00
8.8000000000000007e+00 0.0000000000000000e+00 0.0000000000000000e+00
8.9000000000000004e+00 0.0000000000000000e+00 0.0000000000000000e+00
9.0000000000000000e+00 0.0000000000000000e+00 0.0000000000000000e+00
9.0999999999999996e+00 0.0000000000000000e+00 0.0000000000000000e+00
9.2000000000000011e+00 0.0000000000000000e+00 0.0000000000000000e+00
9.3000000000000007e+00 0.0000000000000000e+00 0.0000000000000000e+00
9.4000000000000004e+00 0.0000000000000000e+00 0.0000000000000000e+00
9.5000000000000000e+00 0.0000000000000000e+00 0.0000000000000000e+00
9.6000000000000014e+00 0.0000000000000000e+00 0.0000000000000000e+00
9.7000000000000011e+00 0.0000000000000000e+00 0.0000000000000000e+00
9.8000000000000007e+00 0.0000000000000000e+00 0.0000000000000000e+00
9.9000000000000004e+00 0.0000000000000000e+00 0.0000000000000000e+00
1.0000000000000000e+01 0.0000000000000000e+00 0.0000000000000000e+00

POINT_DATA 101

VECTORS velocity float
7.1284505068594379e+00 0.0000000000000000e+00 0.0000000000000000e+00
7.1303037125529869e+00 0.0000000000000000e+00 0.0000000000000000e+00
7.1321750384846130e+00 0.0000000000000000e+00 0.0000000000000000e+00
7.1340487905004322e+00 0.0000000000000000e+00 0.0000000000000000e+00
7.1359157545512222e+00 0.0000000000000000e+00 0.0000000000000000e+00
7.1377705407177903e+00 0.0000000000000000e+00 0.0000000000000000e+00
7.1396100056132292e+00 0.0000000000000000e+00 0.0000000000000000e+00
7.1414323187072659e+00 0.0000000000000000e+00 0.0000000000000000e+00
7.1432364119990552e+00 0.0000000000000000e+00 0.0000000000000000e+00
7.1450216572713900e+00 0.0000000000000000e+00 0.0000000000000000e+00
7.1467876777282831e+00 0.0000000000000000e+00 0.0000000000000000e+00
7.1485342388902984e+00 0.0000000000000000e+00 0.0000000000000000e+00
7.1502611859367500e+00 0.0000000000000000e+00 0.0000000000000000e+00
7.1519684079037242e+00 0.0000000000000000e+00 0.0000000000000000e+00
7.1536558175893594e+00 0.0000000000000000e+00 0.0000000000000000e+00
7.1553233403940082e+00 0.0000000000000000e+00 0.0000000000000000e+00
7.1569709082821218e+00 0.0000000000000000e+00 0.0000000000000000e+00
7.1585984565416974e+00 0.0000000000000000e+00 0.0000000000000000e+00
7.1602059221942298e+00 0.0000000000000000e+00 0.0000000000000000e+00
7.1617932431724256e+00 0.0000000000000000e+00 0.0000000000000000e+00
7.1633603579928042e+00 0.0000000000000000e+00 0.0000000000000000e+00
7.1649072056529031e+00 0.0000000000000000e+00 0.0000000000000000e+00
7.1664337255980293e+00 0.0000000000000000e+00 0.0000000000000000e+00
7.1679398577808060e+00 0.0000000000000000e+00 0.0000000000000000e+00
7.1694255427094937e+00 0.0000000000000000e+00 0.0000000000000000e+00
7.1708907214664066e+00 0.0000000000000000e+00 0.0000000000000000e+00
7.1723353357681923e+00 0.0000000000000000e+00 0.0000000000000000e+00
7.1737593280002656e+00 0.0000000000000000e+00 0.0000000000000000e+00
7.1751626412257083e+00 0.0000000000000000e+00 0.0000000000000000e+00
7.1765452192299604e+00 0.0000000000000000e+00 0.0000000000000000e+00
7.1779070064896198e+00 0.0000000000000000e+00 0.0000000000000000e+00
7.1792479481422893e+00 0.0000000000000000e+00 0.0000000000000000e+00
7.1805679901745378e+00 0.0000000000000000e+00 0.0000000000000000e+00
7.1818670793067669e+00 0.0000000000000000e+00 0.0000000000000000e+00
7.1831451629944922e+00 0.0000000000000000e+00 0.0000000000000000e+00
7.1844021894469261e+00 0.0000000000000000e+00 0.0000000000000000e+00
7.1856381076420535e+00 0.0000000000000000e+00 0.0000000000000000e+00
7.1868528672043537e+00 0.0000000000000000e+00 0.0000000000000000e+00
7.1880464185034274e+00 0.0000000000000000e+00 0.0000000000000000e+00
7.1892187128578442e+00 0.0000000000000000e+00 0.0000000000000000e+00
7.1903697021394857e+00 0.0000000000000000e+00 0.0000000000000000e+00
7.1914993390023287e+00 0.0000000000000000e+00 0.0000000000000000e+00
7.1926075769438365e+00 0.0000000000000000e+00 0.0000000000000000e+00
7.1936943701290597e+00 0.0000000000000000e+00 0.0000000000000000e+00
7.1947596735159554e+00 0.0000000000000000e+00 0.0000000000000000e+00
7.1958034429759472e+00 0.0000000000000000e+00 0.0000000000000000e+00
7.1968256352588513e+00 0.0000000000000000e+00 0.0000000000000000e+00
7.1978262078711026e+00 0.0000000000000000e+00 0.0000000000000000e+00
7.1988051178147430e+00 0.0000000000000000e+00 0.0000000000000000e+00
7.1997623238097095e+00 0.0000000000000000e+00 0.0000000000000000e+00
7.2006977863323378e+00 0.0000000000000000e+00 0.0000000000000000e+00
7.2016114654049082e+00 0.0000000000000000e+00 0.0000000000000000e+00
7.2025033221105028e+00 0.0000000000000000e+00 0.0000000000000000e+00
7.2033733183088646e+00 0.0000000000000000e+00 0.0000000000000000e+00
7.2042214166332510e+00 0.0000000000000000e+00 0.0000000000000000e+00
7.2050475805031304e+00 0.0000000000000000e+00 0.0000000000000000e+00
7.2058517740115562e+00 0.0000000000000000e+00 0.0000000000000000e+00
7.2066339620605362e+00 0.0000000000000000e+00 0.0000000000000000e+00
7.2073941104743602e+00 0.0000000000000000e+00 0.0000000000000000e+00
7.2081321857699630e+00 0.0000000000000000e+00 0.0000000000000000e+00
7.2088481552979466e+00 0.0000000000000000e+00 0.0000000000000000e+00
7.2095419872639326e+00 0.0000000000000000e+00 0.0000000000000000e+00
7.2102136504980923e+00 0.0000000000000000e+00 0.0000000000000000e+00
7.2108631145488404e+00 0.0000000000000000e+00 0.0000000000000000e+00
7.2114903498103784e+00 0.0000000000000000e+00 0.0000000000000000e+00
7.2120953274196049e+00 0.0000000000000000e+00 0.0000000000000000e+00
7.2126780193431950e+00 0.0000000000000000e+00 0.0000000000000000e+00
7.2132383983946795e+00 0.0000000000000000e+00 0.0000000000000000e+00
7.2137764381523919e+00 0.0000000000000000e+00 0.0000000000000000e+00
7.2142921129769588e+00 0.0000000000000000e+00 0.0000000000000000e+00
7.2147853980239995e+00 0.0000000000000000e+00 0.0000000000000000e+00
7.2152562692319622e+00 0.0000000000000000e+00 0.0000000000000000e+00
7.2157047033355264e+00 0.0000000000000000e+00 0.0000000000000000e+00
7.2161306778722754e+00 0.0000000000000000e+00 0.0000000000000000e+00
7.2165341711655611e+00 0.0000000000000000e+00 0.0000000000000000e+00
7.2169151623632741e+00 0.0000000000000000e+00 0.0000000000000000e+00
7.2172736314161305e+00 0.0000000000000000e+00 0.0000000000000000e+00
7.2176095590316383e+00 0.0000000000000000e+00 0.0000000000000000e+00
7.2179229267264864e+00 0.0000000000000000e+00 0.0000000000000000e+00
7.2182137168666261e+00 0.0000000000000000e+00 0.0000000000000000e+00
7.2184819126267428e+00 0.0000000000000000e+00 0.0000000000000000e+00
7.2187274979201561e+00 0.0000000000000000e+00 0.0000000000000000e+00
7.2189504576725216e+00 0.0000000000000000e+00 0.0000000000000000e+00
7.2191507774337254e+00 0.0000000000000000e+00 0.0000000000000000e+00
7.2193284435089744e+00 0.0000000000000000e+00 0.0000000000000000e+00
7.2194834433391497e+00 0.0000000000000000e+00 0.0000000000000000e+00
7.2196157650564450e+00 0.0000000000000000e+00 0.0000000000000000e+00
7.2197253973060578e+00 0.0000000000000000e+00 0.0000000000000000e+00
7.2198123298765102e+00 0.0000000000000000e+00 0.0000000000000000e+00
7.2198765525544015e+00 0.0000000000000000e+00 0.0000000000000000e+00
7.2199180583033886e+00 0.0000000000000000e+00 0.0000000000000000e+00
7.2199368344674157e+00 0.0000000000000000e+00 0.0000000000000000e+00
7.2199328873792945e+00 0.0000000000000000e+00 0.0000000000000000e+00
7.2199061760732812e+00 0.0000000000000000e+00 0.0000000000000000e+00
7.2198567873080322e+00 0.0000000000000000e+00 0.0000000000000000e+00
7.2197844723401392e+00 0.0000000000000000e+00 0.0000000000000000e+00
7.2196898746402187e+00 0.0000000000000000e+00 0.0000000000000000e+00
7.2195712795262583e+00 0.0000000000000000e+00 0.0000000000000000e+00
7.2194332062449185e+00 0.0000000000000000e+00 0.0000000000000000e+00
7.2192637284115202e+00 0.0000000000000000e+00 0.0000000000000000e+00
7.2190942505781228e+00 0.0000000000000000e+00 0.0000000000000000e+00


SCALARS pressure float
LOOKUP_TABLE default
-3.5450550037836400e+01
-3.5115426825158032e+01
-3.4780303612479671e+01
-3.4444979349508259e+01
-3.4109338958465983e+01
-3.3773317564236464e+01
-3.3436879415772843e+01
-3.3100005524608882e+01
-3.2762686456194452e+01
-3.2424918153848822e+01
-3.2086699539110668e+01
-3.1748031145613673e+01
-3.1408914351001410e+01
-3.1069350952050566e+01
-3.0729342933715738e+01
-3.0388892347392176e+01
-3.0048001249229493e+01
-2.9706671671038890e+01
-2.9364905607968414e+01
-2.9022705015014132e+01
-2.8680071807212268e+01
-2.8337007861597595e+01
-2.7993515019687216e+01
-2.7649595089745144e+01
-2.7305249848978139e+01
-2.6960481045376913e+01
-2.6615290399107398e+01
-2.6269679603851216e+01
-2.5923650327942749e+01
-2.5577204215264612e+01
-2.5230342886221518e+01
-2.4883067938339305e+01
-2.4535380946708084e+01
-2.4187283465497462e+01
-2.3838777028355363e+01
-2.3489863148938632e+01
-2.3140543321616775e+01
-2.2790819022200253e+01
-2.2440691708026300e+01
-2.2090162818814097e+01
-2.1739233778322653e+01
-2.1387905993429356e+01
-2.1036180855342639e+01
-2.0684059740773019e+01
-2.0331544011873522e+01
-1.9978635017244351e+01
-1.9625334093362689e+01
-1.9271642565397819e+01
-1.8917561747354210e+01
-1.8563092935812179e+01
-1.8208237419223249e+01
-1.7852996482335076e+01
-1.7497371396988527e+01
-1.7141363426683494e+01
-1.6784973827242705e+01
-1.6428203847455947e+01
-1.6071054729801471e+01
-1.5713527710531382e+01
-1.5355624020790318e+01
-1.4997344888056814e+01
-1.4638691535938021e+01
-1.4279665185228353e+01
-1.3920267054857531e+01
-1.3560498361468683e+01
-1.3200360320106199e+01
-1.2839854145536858e+01
-1.2478981052624803e+01
-1.2117742257333383e+01
-1.1756138977625572e+01
-1.1394172433810530e+01
-1.1031843849179138e+01
-1.0669154450724402e+01
-1.0306105469765690e+01
-9.9426981426685419e+00
-9.5789337115678190e+00
-9.2148134249764091e+00
-8.8503385386188391e+00
-8.4855103160661915e+00
-8.1203300291359106e+00
-7.7547989587606194e+00
-7.3889183959214906e+00
-7.0226896422329350e+00
-6.6561140102218648e+00
-6.2891928252851423e+00
-5.9219274248790006e+00
-5.5543191591823646e+00
-5.1863693939647941e+00
-4.8180795095215414e+00
-4.4494509003048464e+00
-4.0804849775437368e+00
-3.7111831656212115e+00
-3.3415469163394054e+00
-2.9715776723395688e+00
-2.6012769725088987e+00
-2.2306461729097040e+00
-1.8596871827902062e+00
-1.4884005220937497e+00
-1.1167904615068922e+00
-7.4485145063394043e-01
-3.7260390054719911e-01
0.0000000000000000e+00


SCALARS diameter float
LOOKUP_TABLE default
9.9680755386936004e-01
9.9683766139198360e-01
9.9686777027554863e-01
9.9689789858332567e-01
9.9692805665576123e-01
9.9695825032499819e-01
9.9698848280847019e-01
9.9701875581695587e-01
9.9704907020635614e-01
9.9707942634868563e-01
9.9710982433966722e-01
9.9714026415858525e-01
9.9717074567051489e-01
9.9720126872347659e-01
9.9723183313723651e-01
9.9726243874099429e-01
9.9729308534820793e-01
9.9732377278932172e-01
9.9735450088567601e-01
9.9738526946720896e-01
9.9741607836953505e-01
9.9744692742762031e-01
9.9747781648254830e-01
9.9750874537985312e-01
9.9753971395908103e-01
9.9757072207213926e-01
9.9760176956938595e-01
9.9763285630387155e-01
9.9766398212935203e-01
9.9769514690511074e-01
9.9772635048538494e-01
9.9775759275567766e-01
9.9778887357268109e-01
9.9782019278034140e-01
9.9785155025850880e-01
9.9788294585678239e-01
9.9791437945867933e-01
9.9794585092161214e-01
9.9797736017465988e-01
9.9800890702807410e-01
9.9804049139460882e-01
9.9807211316218025e-01
9.9810377220629565e-01
9.9813546839858147e-01
9.9816720165580541e-01
9.9819897180254868e-01
9.9823077870588728e-01
9.9826262217599193e-01
9.9829450229967043e-01
9.9832641915201104e-01
9.9835837215792289e-01
9.9839036140442183e-01
9.9842238678400341e-01
9.9845444818814932e-01
9.9848654550925109e-01
9.9851867863833565e-01
9.9855084747898093e-01
9.9858305195236585e-01
9.9861529191240439e-01
9.9864756725295645e-01
9.9867987786752210e-01
9.9871222361741252e-01
9.9874460440623014e-01
9.9877702016727909e-01
9.9880947079357751e-01
9.9884195619090888e-01
9.9887447626126769e-01
9.9890703088146005e-01
9.9893961994485636e-01
9.9897224334616630e-01
9.9900490098092543e-01
9.9903759274261328e-01
9.9907031853001671e-01
9.9910307823194322e-01
9.9913587174693963e-01
9.9916869896244165e-01
9.9920155976785219e-01
9.9923445405815947e-01
9.9926738173742724e-01
9.9930034268147172e-01
9.9933333678088931e-01
9.9936636392295841e-01
9.9939942399462023e-01
9.9943251682933054e-01
9.9946564242010338e-01
9.9949880053312234e-01
9.9953199107861468e-01
9.9956521394201214e-01
9.9959846906969529e-01
9.9963175631935830e-01
9.9966507559966478e-01
9.9969842678639376e-01
9.9973180963777419e-01
9.9976522406461077e-01
9.9979866997464517e-01
9.9983214717226632e-01
9.9986565560591945e-01
9.9989919494004631e-01
9.9993276569306122e-01
9.9996636601904676e-01
1.0000000002405236e+00


SCALARS iters float
LOOKUP_TABLE default
3.0000000000000000e+00
3.0000000000000000e+00
3.0000000000000000e+00
3.0000000000000000e+00
3.0000000000000000e+00
3.0000000000000000e+00
3.0000000000000000e+00
3.0000000000000000e+00
3.0000000000000000e+00
3.0000000000000000e+00
3.0000000000000000e+00
3.0000000000000000e+00
3.0000000000000000e+00
3.0000000000000000e+00
3.0000000000000000e+00
3.0000000000000000e+00
3.0000000000000000e+00
3.0000000000000000e+00
3.0000000000000000e+00
3.0000000000000000e+00
3.0000000000000000e+00
3.0000000000000000e+00
3.0000000000000000e+00
3.0000000000000000e+00
3.0000000000000000e+00
3.0000000000000000e+00
3.0000000000000000e+00
3.0000000000000000e+00
3.0000000000000000e+00
3.0000000000000000e+00
3.0000000000000000e+00
3.0000000000000000e+00
3.0000000000000000e+00
3.0000000000000000e+00
3.0000000000000000e+00
3.0000000000000000e+00
3.0000000000000000e+00
3.0000000000000000e+00
3.0000000000000000e+00
3.0000000000000000e+00
3.0000000000000000e+00
3.0000000000000000e+00
3.0000000000000000e+00
3.0000000000000000e+00
3.0000000000000000e+00
3.0000000000000000e+00
3.0000000000000000e+00
3.0000000000000000e+00
3.0000000000000000e+00
3.0000000000000000e+00
3.0000000000000000e+00
3.0000000000000000e+00
3.0000000000000000e+00
3.0000000000000000e+00
3.0000000000000000e+00
3.0000000000000000e+00
3.0000000000000000e+00
3.0000000000000000e+00
3.0000000000000000e+00
3.0000000000000000e+00
3.0000000000000000e+00
3.0000000000000000e+00
3.0000000000000000e+00
3.0000000000000000e+00
3.0000000000000000e+00
3.0000000000000000e+00
3.0000000000000000e+00
3.0000000000000000e+00
3.0000000000000000e+00
3.0000000000000000e+00
3.0000000000000000e+00
3.0000000000000000e+00
3.0000000000000000e+00
3.0000000000000000e+00
3.0000000000000000e+00
3.0000000000000000e+00
3.0000000000000000e+00
3.0000000000000000e+00
3.0000000000000000e+00
3.0000000000000000e+00
3.0000000000000000e+00
3.0000000000000000e+00
3.0000000000000000e+00
3.0000000000000000e+00
3.0000000000000000e+00
3.0000000000000000e+00
3.0000000000000000e+00
3.0000000000000000e+00
3.0000000000000000e+00
3.0000000000000000e+00
3.0000000000000000e+00
3.0000000000000000e+00
3.0000000000000000e+00
3.0000000000000000e+00
3.0000000000000000e+00
3.0000000000000000e+00
3.0000000000000000e+00
3.0000000000000000e+00
3.0000000000000000e+00
3.0000000000000000e+00
3.0000000000000000e+00


