# vtk DataFile Version 2.0

ASCII

DATASET UNSTRUCTURED_GRID

POINTS 101 float

0.0000000000000000e+00 0.0000000000000000e+00 0.0000000000000000e+00
1.0000000000000001e-01 0.0000000000000000e+00 0.0000000000000000e+00
2.0000000000000001e-01 0.0000000000000000e+00 0.0000000000000000e+00
3.0000000000000004e-01 0.0000000000000000e+00 0.0000000000000000e+00
4.0000000000000002e-01 0.0000000000000000e+00 0.0000000000000000e+00
5.0000000000000000e-01 0.0000000000000000e+00 0.0000000000000000e+00
6.0000000000000009e-01 0.0000000000000000e+00 0.0000000000000000e+00
7.0000000000000007e-01 0.0000000000000000e+00 0.0000000000000000e+00
8.0000000000000004e-01 0.0000000000000000e+00 0.0000000000000000e+00
9.0000000000000002e-01 0.0000000000000000e+00 0.0000000000000000e+00
1.0000000000000000e+00 0.0000000000000000e+00 0.0000000000000000e+00
1.1000000000000001e+00 0.0000000000000000e+00 0.0000000000000000e+00
1.2000000000000002e+00 0.0000000000000000e+00 0.0000000000000000e+00
1.3000000000000000e+00 0.0000000000000000e+00 0.0000000000000000e+00
1.4000000000000001e+00 0.0000000000000000e+00 0.0000000000000000e+00
1.5000000000000000e+00 0.0000000000000000e+00 0.0000000000000000e+00
1.6000000000000001e+00 0.0000000000000000e+00 0.0000000000000000e+00
1.7000000000000002e+00 0.0000000000000000e+00 0.0000000000000000e+00
1.8000000000000000e+00 0.0000000000000000e+00 0.0000000000000000e+00
1.9000000000000001e+00 0.0000000000000000e+00 0.0000000000000000e+00
2.0000000000000000e+00 0.0000000000000000e+00 0.0000000000000000e+00
2.1000000000000001e+00 0.0000000000000000e+00 0.0000000000000000e+00
2.2000000000000002e+00 0.0000000000000000e+00 0.0000000000000000e+00
2.3000000000000003e+00 0.0000000000000000e+00 0.0000000000000000e+00
2.4000000000000004e+00 0.0000000000000000e+00 0.0000000000000000e+00
2.5000000000000000e+00 0.0000000000000000e+00 0.0000000000000000e+00
2.6000000000000001e+00 0.0000000000000000e+00 0.0000000000000000e+00
2.7000000000000002e+00 0.0000000000000000e+00 0.0000000000000000e+00
2.8000000000000003e+00 0.0000000000000000e+00 0.0000000000000000e+00
2.9000000000000004e+00 0.0000000000000000e+00 0.0000000000000000e+00
3.0000000000000000e+00 0.0000000000000000e+00 0.0000000000000000e+00
3.1000000000000001e+00 0.0000000000000000e+00 0.0000000000000000e+00
3.2000000000000002e+00 0.0000000000000000e+00 0.0000000000000000e+00
3.3000000000000003e+00 0.0000000000000000e+00 0.0000000000000000e+00
3.4000000000000004e+00 0.0000000000000000e+00 0.0000000000000000e+00
3.5000000000000000e+00 0.0000000000000000e+00 0.0000000000000000e+00
3.6000000000000001e+00 0.0000000000000000e+00 0.0000000000000000e+00
3.7000000000000002e+00 0.0000000000000000e+00 0.0000000000000000e+00
3.8000000000000003e+00 0.0000000000000000e+00 0.0000000000000000e+00
3.9000000000000004e+00 0.0000000000000000e+00 0.0000000000000000e+00
4.0000000000000000e+00 0.0000000000000000e+00 0.0000000000000000e+00
4.1000000000000005e+00 0.0000000000000000e+00 0.0000000000000000e+00
4.2000000000000002e+00 0.0000000000000000e+00 0.0000000000000000e+00
4.2999999999999998e+00 0.0000000000000000e+00 0.0000000000000000e+00
4.4000000000000004e+00 0.0000000000000000e+00 0.0000000000000000e+00
4.5000000000000000e+00 0.0000000000000000e+00 0.0000000000000000e+00
4.6000000000000005e+00 0.0000000000000000e+00 0.0000000000000000e+00
4.7000000000000002e+00 0.0000000000000000e+00 0.0000000000000000e+00
4.8000000000000007e+00 0.0000000000000000e+00 0.0000000000000000e+00
4.9000000000000004e+00 0.0000000000000000e+00 0.0000000000000000e+00
5.0000000000000000e+00 0.0000000000000000e+00 0.0000000000000000e+00
5.1000000000000005e+00 0.0000000000000000e+00 0.0000000000000000e+00
5.2000000000000002e+00 0.0000000000000000e+00 0.0000000000000000e+00
5.3000000000000007e+00 0.0000000000000000e+00 0.0000000000000000e+00
5.4000000000000004e+00 0.0000000000000000e+00 0.0000000000000000e+00
5.5000000000000000e+00 0.0000000000000000e+00 0.0000000000000000e+00
5.6000000000000005e+00 0.0000000000000000e+00 0.0000000000000000e+00
5.7000000000000002e+00 0.0000000000000000e+00 0.0000000000000000e+00
5.8000000000000007e+00 0.0000000000000000e+00 0.0000000000000000e+00
5.9000000000000004e+00 0.0000000000000000e+00 0.0000000000000000e+00
6.0000000000000000e+00 0.0000000000000000e+00 0.0000000000000000e+00
6.1000000000000005e+00 0.0000000000000000e+00 0.0000000000000000e+00
6.2000000000000002e+00 0.0000000000000000e+00 0.0000000000000000e+00
6.3000000000000007e+00 0.0000000000000000e+00 0.0000000000000000e+00
6.4000000000000004e+00 0.0000000000000000e+00 0.0000000000000000e+00
6.5000000000000000e+00 0.0000000000000000e+00 0.0000000000000000e+00
6.6000000000000005e+00 0.0000000000000000e+00 0.0000000000000000e+00
6.7000000000000002e+00 0.0000000000000000e+00 0.0000000000000000e+00
6.8000000000000007e+00 0.0000000000000000e+00 0.0000000000000000e+00
6.9000000000000004e+00 0.0000000000000000e+00 0.0000000000000000e+00
7.0000000000000000e+00 0.0000000000000000e+00 0.0000000000000000e+00
7.1000000000000005e+00 0.0000000000000000e+00 0.0000000000000000e+00
7.2000000000000002e+00 0.0000000000000000e+00 0.0000000000000000e+00
7.3000000000000007e+00 0.0000000000000000e+00 0.0000000000000000e+00
7.4000000000000004e+00 0.0000000000000000e+00 0.0000000000000000e+00
7.5000000000000000e+00 0.0000000000000000e+00 0.0000000000000000e+00
7.6000000000000005e+00 0.0000000000000000e+00 0.0000000000000000e+00
7.7000000000000002e+00 0.0000000000000000e+00 0.0000000000000000e+00
7.8000000000000007e+00 0.0000000000000000e+00 0.0000000000000000e+00
7.9000000000000004e+00 0.0000000000000000e+00 0.0000000000000000e+00
8.0000000000000000e+00 0.0000000000000000e+00 0.0000000000000000e+00
8.0999999999999996e+00 0.0000000000000000e+00 0.0000000000000000e+00
8.2000000000000011e+00 0.0000000000000000e+00 0.0000000000000000e+00
8.3000000000000007e+00 0.0000000000000000e+00 0.0000000000000000e+00
8.4000000000000004e+00 0.0000000000000000e+00 0.0000000000000000e+00
8.5000000000000000e+00 0.0000000000000000e+00 0.0000000000000000e+00
8.5999999999999996e+00 0.0000000000000000e+00 0.0000000000000000e+00
8.7000000000000011e+00 0.0000000000000000e+00 0.0000000000000000e+00
8.8000000000000007e+00 0.0000000000000000e+00 0.0000000000000000e+00
8.9000000000000004e+00 0.0000000000000000e+00 0.0000000000000000e+00
9.0000000000000000e+00 0.0000000000000000e+00 0.0000000000000000e+00
9.0999999999999996e+00 0.0000000000000000e+00 0.0000000000000000e+00
9.2000000000000011e+00 0.0000000000000000e+00 0.0000000000000000e+00
9.3000000000000007e+00 0.0000000000000000e+00 0.0000000000000000e+00
9.4000000000000004e+00 0.0000000000000000e+00 0.0000000000000000e+00
9.5000000000000000e+00 0.0000000000000000e+00 0.0000000000000000e+00
9.6000000000000014e+00 0.0000000000000000e+00 0.0000000000000000e+00
9.7000000000000011e+00 0.0000000000000000e+00 0.0000000000000000e+00
9.8000000000000007e+00 0.0000000000000000e+00 0.0000000000000000e+00
9.9000000000000004e+00 0.0000000000000000e+00 0.0000000000000000e+00
1.0000000000000000e+01 0.0000000000000000e+00 0.0000000000000000e+00

POINT_DATA 101

VECTORS velocity float
5.1909415542480506e+00 0.0000000000000000e+00 0.0000000000000000e+00
5.1919713217861378e+00 0.0000000000000000e+00 0.0000000000000000e+00
5.1929756742832902e+00 0.0000000000000000e+00 0.0000000000000000e+00
5.1939597813803955e+00 0.0000000000000000e+00 0.0000000000000000e+00
5.1949274337478872e+00 0.0000000000000000e+00 0.0000000000000000e+00
5.1958831001580901e+00 0.0000000000000000e+00 0.0000000000000000e+00
5.1968317811448239e+00 0.0000000000000000e+00 0.0000000000000000e+00
5.1977731647315917e+00 0.0000000000000000e+00 0.0000000000000000e+00
5.1987036157042281e+00 0.0000000000000000e+00 0.0000000000000000e+00
5.1996216432172924e+00 0.0000000000000000e+00 0.0000000000000000e+00
5.2005282862582556e+00 0.0000000000000000e+00 0.0000000000000000e+00
5.2014241832133585e+00 0.0000000000000000e+00 0.0000000000000000e+00
5.2023108872606958e+00 0.0000000000000000e+00 0.0000000000000000e+00
5.2031913396238947e+00 0.0000000000000000e+00 0.0000000000000000e+00
5.2040651393758672e+00 0.0000000000000000e+00 0.0000000000000000e+00
5.2049309252229738e+00 0.0000000000000000e+00 0.0000000000000000e+00
5.2057851480403521e+00 0.0000000000000000e+00 0.0000000000000000e+00
5.2066260699237219e+00 0.0000000000000000e+00 0.0000000000000000e+00
5.2074568935344878e+00 0.0000000000000000e+00 0.0000000000000000e+00
5.2082789170615023e+00 0.0000000000000000e+00 0.0000000000000000e+00
5.2090913936126100e+00 0.0000000000000000e+00 0.0000000000000000e+00
5.2098939284071628e+00 0.0000000000000000e+00 0.0000000000000000e+00
5.2106867552336675e+00 0.0000000000000000e+00 0.0000000000000000e+00
5.2114701901950662e+00 0.0000000000000000e+00 0.0000000000000000e+00
5.2122469680030683e+00 0.0000000000000000e+00 0.0000000000000000e+00
5.2130155403068734e+00 0.0000000000000000e+00 0.0000000000000000e+00
5.2137729441255392e+00 0.0000000000000000e+00 0.0000000000000000e+00
5.2145202167439813e+00 0.0000000000000000e+00 0.0000000000000000e+00
5.2152577414525911e+00 0.0000000000000000e+00 0.0000000000000000e+00
5.2159848382210647e+00 0.0000000000000000e+00 0.0000000000000000e+00
5.2167010708230057e+00 0.0000000000000000e+00 0.0000000000000000e+00
5.2174070370487726e+00 0.0000000000000000e+00 0.0000000000000000e+00
5.2181032440868611e+00 0.0000000000000000e+00 0.0000000000000000e+00
5.2187902032673534e+00 0.0000000000000000e+00 0.0000000000000000e+00
5.2194677038874184e+00 0.0000000000000000e+00 0.0000000000000000e+00
5.2201355093381876e+00 0.0000000000000000e+00 0.0000000000000000e+00
5.2207934976241619e+00 0.0000000000000000e+00 0.0000000000000000e+00
5.2214416703233590e+00 0.0000000000000000e+00 0.0000000000000000e+00
5.2220798262439416e+00 0.0000000000000000e+00 0.0000000000000000e+00
5.2227085134726687e+00 0.0000000000000000e+00 0.0000000000000000e+00
5.2233283551404428e+00 0.0000000000000000e+00 0.0000000000000000e+00
5.2239388055968661e+00 0.0000000000000000e+00 0.0000000000000000e+00
5.2245397296069802e+00 0.0000000000000000e+00 0.0000000000000000e+00
5.2251310541310971e+00 0.0000000000000000e+00 0.0000000000000000e+00
5.2257127383448134e+00 0.0000000000000000e+00 0.0000000000000000e+00
5.2262847579577691e+00 0.0000000000000000e+00 0.0000000000000000e+00
5.2268470975151882e+00 0.0000000000000000e+00 0.0000000000000000e+00
5.2273997456970838e+00 0.0000000000000000e+00 0.0000000000000000e+00
5.2279426943731888e+00 0.0000000000000000e+00 0.0000000000000000e+00
5.2284759364780440e+00 0.0000000000000000e+00 0.0000000000000000e+00
5.2289994652816274e+00 0.0000000000000000e+00 0.0000000000000000e+00
5.2295132750742308e+00 0.0000000000000000e+00 0.0000000000000000e+00
5.2300173598415789e+00 0.0000000000000000e+00 0.0000000000000000e+00
5.2305117138347521e+00 0.0000000000000000e+00 0.0000000000000000e+00
5.2309963318650796e+00 0.0000000000000000e+00 0.0000000000000000e+00
5.2314712086860364e+00 0.0000000000000000e+00 0.0000000000000000e+00
5.2319363386186781e+00 0.0000000000000000e+00 0.0000000000000000e+00
5.2323917166240808e+00 0.0000000000000000e+00 0.0000000000000000e+00
5.2328373382403059e+00 0.0000000000000000e+00 0.0000000000000000e+00
5.2332731984696377e+00 0.0000000000000000e+00 0.0000000000000000e+00
5.2336992924008516e+00 0.0000000000000000e+00 0.0000000000000000e+00
5.2341156157350888e+00 0.0000000000000000e+00 0.0000000000000000e+00
5.2345221640484674e+00 0.0000000000000000e+00 0.0000000000000000e+00
5.2349189326167771e+00 0.0000000000000000e+00 0.0000000000000000e+00
5.2353059170893781e+00 0.0000000000000000e+00 0.0000000000000000e+00
5.2356831132656660e+00 0.0000000000000000e+00 0.0000000000000000e+00
5.2360505169856646e+00 0.0000000000000000e+00 0.0000000000000000e+00
5.2364081243294178e+00 0.0000000000000000e+00 0.0000000000000000e+00
5.2367559314544136e+00 0.0000000000000000e+00 0.0000000000000000e+00
5.2370939345674046e+00 0.0000000000000000e+00 0.0000000000000000e+00
5.2374221299772055e+00 0.0000000000000000e+00 0.0000000000000000e+00
5.2377405141584301e+00 0.0000000000000000e+00 0.0000000000000000e+00
5.2380490836337819e+00 0.0000000000000000e+00 0.0000000000000000e+00
5.2383478350137915e+00 0.0000000000000000e+00 0.0000000000000000e+00
5.2386367651323651e+00 0.0000000000000000e+00 0.0000000000000000e+00
5.2389158706675341e+00 0.0000000000000000e+00 0.0000000000000000e+00
5.2391851487674446e+00 0.0000000000000000e+00 0.0000000000000000e+00
5.2394445963213201e+00 0.0000000000000000e+00 0.0000000000000000e+00
5.2396942107155624e+00 0.0000000000000000e+00 0.0000000000000000e+00
5.2399339896159054e+00 0.0000000000000000e+00 0.0000000000000000e+00
5.2401639301257568e+00 0.0000000000000000e+00 0.0000000000000000e+00
5.2403840298060507e+00 0.0000000000000000e+00 0.0000000000000000e+00
5.2405942861731889e+00 0.0000000000000000e+00 0.0000000000000000e+00
5.2407946972397950e+00 0.0000000000000000e+00 0.0000000000000000e+00
5.2409852606823994e+00 0.0000000000000000e+00 0.0000000000000000e+00
5.2411659743009453e+00 0.0000000000000000e+00 0.0000000000000000e+00
5.2413368363762149e+00 0.0000000000000000e+00 0.0000000000000000e+00
5.2414978438832547e+00 0.0000000000000000e+00 0.0000000000000000e+00
5.2416489955455008e+00 0.0000000000000000e+00 0.0000000000000000e+00
5.2417902894400337e+00 0.0000000000000000e+00 0.0000000000000000e+00
5.2419217268449616e+00 0.0000000000000000e+00 0.0000000000000000e+00
5.2420433035644551e+00 0.0000000000000000e+00 0.0000000000000000e+00
5.2421550231639413e+00 0.0000000000000000e+00 0.0000000000000000e+00
5.2422568689576874e+00 0.0000000000000000e+00 0.0000000000000000e+00
5.2423488820356638e+00 0.0000000000000000e+00 0.0000000000000000e+00
5.2424309495166836e+00 0.0000000000000000e+00 0.0000000000000000e+00
5.2425033634119957e+00 0.0000000000000000e+00 0.0000000000000000e+00
5.2425653570687940e+00 0.0000000000000000e+00 0.0000000000000000e+00
5.2426189311515108e+00 0.0000000000000000e+00 0.0000000000000000e+00
5.2426588574124775e+00 0.0000000000000000e+00 0.0000000000000000e+00
5.2426987836734433e+00 0.0000000000000000e+00 0.0000000000000000e+00


SCALARS pressure float
LOOKUP_TABLE default
2.8375240792113572e+00
2.8139559754514942e+00
2.7903878716916317e+00
2.7667360840294806e+00
2.7429607698111753e+00
2.7190381369385030e+00
2.6949458152159558e+00
2.6706596030891046e+00
2.6461778790175114e+00
2.6215182818850651e+00
2.5966933359972031e+00
2.5717037844658193e+00
2.5465495713828319e+00
2.5212265818303585e+00
2.4957238222370028e+00
2.4700428831588597e+00
2.4441920176455154e+00
2.4181894430475182e+00
2.3920475278314024e+00
2.3657575093905567e+00
2.3393146785156493e+00
2.3127235565726716e+00
2.2859889787294358e+00
2.2591135190848415e+00
2.2320990596440358e+00
2.2049366031539197e+00
2.1776324256065762e+00
2.1502023663272318e+00
2.1226474213592019e+00
2.0949684495659873e+00
2.0671707907248775e+00
2.0392596928402704e+00
2.0112360453879288e+00
1.9831003978889727e+00
1.9548533908793493e+00
1.9264986294184592e+00
1.8980403286092031e+00
1.8694823356031232e+00
1.8408278577357726e+00
1.8120809269636702e+00
1.7832422505223162e+00
1.7543112464547788e+00
1.7252923061633227e+00
1.6961891736860011e+00
1.6670052538293767e+00
1.6377437778888337e+00
1.6084078908690180e+00
1.5790006951149749e+00
1.5495252752137993e+00
1.5199847052606212e+00
1.4903820582922216e+00
1.4607204104945766e+00
1.4310028390783436e+00
1.4012324269321894e+00
1.3714122609185875e+00
1.3415454303450964e+00
1.3116350292275512e+00
1.2816841582359724e+00
1.2516959203115396e+00
1.2216734199821080e+00
1.1916197678193199e+00
1.1615380785843092e+00
1.1314314687025306e+00
1.1013030587513972e+00
1.0711559745308301e+00
1.0409933443881931e+00
1.0108182995389450e+00
9.8063397449798273e-01
9.5044350624838936e-01
9.2025003465399846e-01
8.9005670255870084e-01
8.5986665552742392e-01
8.2968304146341676e-01
7.9950901093561300e-01
7.6934771692325798e-01
7.3920231410802828e-01
7.0907596027764819e-01
6.7897181378702520e-01
6.4889303620066696e-01
6.1884278940553672e-01
5.8882423578979259e-01
5.5884054210828460e-01
5.2889487561771586e-01
4.9899040534568495e-01
4.6913029955968172e-01
4.3931772938209618e-01
4.0955586769377317e-01
3.7984788686996923e-01
3.5019696556211821e-01
3.2060627685028870e-01
2.9107899626178402e-01
2.6161828694351269e-01
2.3222733465989784e-01
2.0290929572212490e-01
1.7366741039582448e-01
1.4450468146853188e-01
1.1542474254139802e-01
8.6429572325322765e-02
5.7525473183579687e-02
2.8707454396490233e-02
0.0000000000000000e+00


SCALARS diameter float
LOOKUP_TABLE default
1.0002544036414840e+00
1.0002527084604820e+00
1.0002504649572896e+00
1.0002487784714806e+00
1.0002475232643886e+00
1.0002462904931246e+00
1.0002437403875757e+00
1.0002403035309804e+00
1.0002375283289513e+00
1.0002357946731177e+00
1.0002344419077538e+00
1.0002331198324079e+00
1.0002317071517577e+00
1.0002292290248556e+00
1.0002258096270225e+00
1.0002223613417358e+00
1.0002192577230475e+00
1.0002177024894172e+00
1.0002160216153775e+00
1.0002138483496621e+00
1.0002116005471633e+00
1.0002095540077574e+00
1.0002074618714469e+00
1.0002052949356399e+00
1.0002023962061590e+00
1.0001986564082812e+00
1.0001960151391964e+00
1.0001933758886641e+00
1.0001907444958174e+00
1.0001881614843831e+00
1.0001860418087067e+00
1.0001839251507798e+00
1.0001818170126326e+00
1.0001794867257812e+00
1.0001770642009928e+00
1.0001746488716052e+00
1.0001722404990367e+00
1.0001698390893214e+00
1.0001674445610618e+00
1.0001650324563314e+00
1.0001622245119184e+00
1.0001594192260428e+00
1.0001566177961718e+00
1.0001538205128393e+00
1.0001510274461582e+00
1.0001482386532596e+00
1.0001454541528509e+00
1.0001426739603916e+00
1.0001398980950447e+00
1.0001371262293823e+00
1.0001343586205833e+00
1.0001315950071612e+00
1.0001288353975930e+00
1.0001260798487852e+00
1.0001233282048332e+00
1.0001205803733977e+00
1.0001178364490682e+00
1.0001150964349044e+00
1.0001123600122821e+00
1.0001096272002514e+00
1.0001068980514167e+00
1.0001041724108883e+00
1.0001014501390249e+00
1.0000987313254368e+00
1.0000960159320820e+00
1.0000933038468955e+00
1.0000905950588739e+00
1.0000878894724972e+00
1.0000851870160554e+00
1.0000824876397316e+00
1.0000797912991206e+00
1.0000770979241291e+00
1.0000744074485393e+00
1.0000717198378746e+00
1.0000690349983339e+00
1.0000663529043607e+00
1.0000636735127379e+00
1.0000609966805423e+00
1.0000583225103379e+00
1.0000556505772678e+00
1.0000529811557977e+00
1.0000503140205783e+00
1.0000476492276802e+00
1.0000449865764380e+00
1.0000423260484967e+00
1.0000396677356542e+00
1.0000370113477794e+00
1.0000343571224251e+00
1.0000317050744465e+00
1.0000290547639381e+00
1.0000264061419568e+00
1.0000237584914826e+00
1.0000211131294967e+00
1.0000184689466745e+00
1.0000158264503820e+00
1.0000131853678644e+00
1.0000105457040502e+00
1.0000079073672641e+00
1.0000052703100613e+00
1.0000026344647599e+00
9.9999999996255984e-01


SCALARS iters float
LOOKUP_TABLE default
5.0000000000000000e+00
5.0000000000000000e+00
5.0000000000000000e+00
5.0000000000000000e+00
5.0000000000000000e+00
5.0000000000000000e+00
5.0000000000000000e+00
5.0000000000000000e+00
5.0000000000000000e+00
5.0000000000000000e+00
5.0000000000000000e+00
5.0000000000000000e+00
5.0000000000000000e+00
5.0000000000000000e+00
5.0000000000000000e+00
5.0000000000000000e+00
5.0000000000000000e+00
5.0000000000000000e+00
5.0000000000000000e+00
5.0000000000000000e+00
5.0000000000000000e+00
5.0000000000000000e+00
5.0000000000000000e+00
5.0000000000000000e+00
5.0000000000000000e+00
5.0000000000000000e+00
5.0000000000000000e+00
5.0000000000000000e+00
5.0000000000000000e+00
5.0000000000000000e+00
5.0000000000000000e+00
5.0000000000000000e+00
5.0000000000000000e+00
5.0000000000000000e+00
5.0000000000000000e+00
5.0000000000000000e+00
5.0000000000000000e+00
5.0000000000000000e+00
5.0000000000000000e+00
5.0000000000000000e+00
5.0000000000000000e+00
5.0000000000000000e+00
5.0000000000000000e+00
5.0000000000000000e+00
5.0000000000000000e+00
5.0000000000000000e+00
5.0000000000000000e+00
5.0000000000000000e+00
5.0000000000000000e+00
5.0000000000000000e+00
5.0000000000000000e+00
5.0000000000000000e+00
5.0000000000000000e+00
5.0000000000000000e+00
5.0000000000000000e+00
5.0000000000000000e+00
5.0000000000000000e+00
5.0000000000000000e+00
5.0000000000000000e+00
5.0000000000000000e+00
5.0000000000000000e+00
5.0000000000000000e+00
5.0000000000000000e+00
5.0000000000000000e+00
5.0000000000000000e+00
5.0000000000000000e+00
5.0000000000000000e+00
5.0000000000000000e+00
5.0000000000000000e+00
5.0000000000000000e+00
5.0000000000000000e+00
5.0000000000000000e+00
5.0000000000000000e+00
5.0000000000000000e+00
5.0000000000000000e+00
5.0000000000000000e+00
5.0000000000000000e+00
5.0000000000000000e+00
5.0000000000000000e+00
5.0000000000000000e+00
5.0000000000000000e+00
5.0000000000000000e+00
5.0000000000000000e+00
5.0000000000000000e+00
5.0000000000000000e+00
5.0000000000000000e+00
5.0000000000000000e+00
5.0000000000000000e+00
5.0000000000000000e+00
5.0000000000000000e+00
5.0000000000000000e+00
5.0000000000000000e+00
5.0000000000000000e+00
5.0000000000000000e+00
5.0000000000000000e+00
5.0000000000000000e+00
5.0000000000000000e+00
5.0000000000000000e+00
5.0000000000000000e+00
5.0000000000000000e+00
5.0000000000000000e+00


