# vtk DataFile Version 2.0

ASCII

DATASET UNSTRUCTURED_GRID

POINTS 101 float

0.0000000000000000e+00 0.0000000000000000e+00 0.0000000000000000e+00
1.0000000000000001e-01 0.0000000000000000e+00 0.0000000000000000e+00
2.0000000000000001e-01 0.0000000000000000e+00 0.0000000000000000e+00
3.0000000000000004e-01 0.0000000000000000e+00 0.0000000000000000e+00
4.0000000000000002e-01 0.0000000000000000e+00 0.0000000000000000e+00
5.0000000000000000e-01 0.0000000000000000e+00 0.0000000000000000e+00
6.0000000000000009e-01 0.0000000000000000e+00 0.0000000000000000e+00
7.0000000000000007e-01 0.0000000000000000e+00 0.0000000000000000e+00
8.0000000000000004e-01 0.0000000000000000e+00 0.0000000000000000e+00
9.0000000000000002e-01 0.0000000000000000e+00 0.0000000000000000e+00
1.0000000000000000e+00 0.0000000000000000e+00 0.0000000000000000e+00
1.1000000000000001e+00 0.0000000000000000e+00 0.0000000000000000e+00
1.2000000000000002e+00 0.0000000000000000e+00 0.0000000000000000e+00
1.3000000000000000e+00 0.0000000000000000e+00 0.0000000000000000e+00
1.4000000000000001e+00 0.0000000000000000e+00 0.0000000000000000e+00
1.5000000000000000e+00 0.0000000000000000e+00 0.0000000000000000e+00
1.6000000000000001e+00 0.0000000000000000e+00 0.0000000000000000e+00
1.7000000000000002e+00 0.0000000000000000e+00 0.0000000000000000e+00
1.8000000000000000e+00 0.0000000000000000e+00 0.0000000000000000e+00
1.9000000000000001e+00 0.0000000000000000e+00 0.0000000000000000e+00
2.0000000000000000e+00 0.0000000000000000e+00 0.0000000000000000e+00
2.1000000000000001e+00 0.0000000000000000e+00 0.0000000000000000e+00
2.2000000000000002e+00 0.0000000000000000e+00 0.0000000000000000e+00
2.3000000000000003e+00 0.0000000000000000e+00 0.0000000000000000e+00
2.4000000000000004e+00 0.0000000000000000e+00 0.0000000000000000e+00
2.5000000000000000e+00 0.0000000000000000e+00 0.0000000000000000e+00
2.6000000000000001e+00 0.0000000000000000e+00 0.0000000000000000e+00
2.7000000000000002e+00 0.0000000000000000e+00 0.0000000000000000e+00
2.8000000000000003e+00 0.0000000000000000e+00 0.0000000000000000e+00
2.9000000000000004e+00 0.0000000000000000e+00 0.0000000000000000e+00
3.0000000000000000e+00 0.0000000000000000e+00 0.0000000000000000e+00
3.1000000000000001e+00 0.0000000000000000e+00 0.0000000000000000e+00
3.2000000000000002e+00 0.0000000000000000e+00 0.0000000000000000e+00
3.3000000000000003e+00 0.0000000000000000e+00 0.0000000000000000e+00
3.4000000000000004e+00 0.0000000000000000e+00 0.0000000000000000e+00
3.5000000000000000e+00 0.0000000000000000e+00 0.0000000000000000e+00
3.6000000000000001e+00 0.0000000000000000e+00 0.0000000000000000e+00
3.7000000000000002e+00 0.0000000000000000e+00 0.0000000000000000e+00
3.8000000000000003e+00 0.0000000000000000e+00 0.0000000000000000e+00
3.9000000000000004e+00 0.0000000000000000e+00 0.0000000000000000e+00
4.0000000000000000e+00 0.0000000000000000e+00 0.0000000000000000e+00
4.1000000000000005e+00 0.0000000000000000e+00 0.0000000000000000e+00
4.2000000000000002e+00 0.0000000000000000e+00 0.0000000000000000e+00
4.2999999999999998e+00 0.0000000000000000e+00 0.0000000000000000e+00
4.4000000000000004e+00 0.0000000000000000e+00 0.0000000000000000e+00
4.5000000000000000e+00 0.0000000000000000e+00 0.0000000000000000e+00
4.6000000000000005e+00 0.0000000000000000e+00 0.0000000000000000e+00
4.7000000000000002e+00 0.0000000000000000e+00 0.0000000000000000e+00
4.8000000000000007e+00 0.0000000000000000e+00 0.0000000000000000e+00
4.9000000000000004e+00 0.0000000000000000e+00 0.0000000000000000e+00
5.0000000000000000e+00 0.0000000000000000e+00 0.0000000000000000e+00
5.1000000000000005e+00 0.0000000000000000e+00 0.0000000000000000e+00
5.2000000000000002e+00 0.0000000000000000e+00 0.0000000000000000e+00
5.3000000000000007e+00 0.0000000000000000e+00 0.0000000000000000e+00
5.4000000000000004e+00 0.0000000000000000e+00 0.0000000000000000e+00
5.5000000000000000e+00 0.0000000000000000e+00 0.0000000000000000e+00
5.6000000000000005e+00 0.0000000000000000e+00 0.0000000000000000e+00
5.7000000000000002e+00 0.0000000000000000e+00 0.0000000000000000e+00
5.8000000000000007e+00 0.0000000000000000e+00 0.0000000000000000e+00
5.9000000000000004e+00 0.0000000000000000e+00 0.0000000000000000e+00
6.0000000000000000e+00 0.0000000000000000e+00 0.0000000000000000e+00
6.1000000000000005e+00 0.0000000000000000e+00 0.0000000000000000e+00
6.2000000000000002e+00 0.0000000000000000e+00 0.0000000000000000e+00
6.3000000000000007e+00 0.0000000000000000e+00 0.0000000000000000e+00
6.4000000000000004e+00 0.0000000000000000e+00 0.0000000000000000e+00
6.5000000000000000e+00 0.0000000000000000e+00 0.0000000000000000e+00
6.6000000000000005e+00 0.0000000000000000e+00 0.0000000000000000e+00
6.7000000000000002e+00 0.0000000000000000e+00 0.0000000000000000e+00
6.8000000000000007e+00 0.0000000000000000e+00 0.0000000000000000e+00
6.9000000000000004e+00 0.0000000000000000e+00 0.0000000000000000e+00
7.0000000000000000e+00 0.0000000000000000e+00 0.0000000000000000e+00
7.1000000000000005e+00 0.0000000000000000e+00 0.0000000000000000e+00
7.2000000000000002e+00 0.0000000000000000e+00 0.0000000000000000e+00
7.3000000000000007e+00 0.0000000000000000e+00 0.0000000000000000e+00
7.4000000000000004e+00 0.0000000000000000e+00 0.0000000000000000e+00
7.5000000000000000e+00 0.0000000000000000e+00 0.0000000000000000e+00
7.6000000000000005e+00 0.0000000000000000e+00 0.0000000000000000e+00
7.7000000000000002e+00 0.0000000000000000e+00 0.0000000000000000e+00
7.8000000000000007e+00 0.0000000000000000e+00 0.0000000000000000e+00
7.9000000000000004e+00 0.0000000000000000e+00 0.0000000000000000e+00
8.0000000000000000e+00 0.0000000000000000e+00 0.0000000000000000e+00
8.0999999999999996e+00 0.0000000000000000e+00 0.0000000000000000e+00
8.2000000000000011e+00 0.0000000000000000e+00 0.0000000000000000e+00
8.3000000000000007e+00 0.0000000000000000e+00 0.0000000000000000e+00
8.4000000000000004e+00 0.0000000000000000e+00 0.0000000000000000e+00
8.5000000000000000e+00 0.0000000000000000e+00 0.0000000000000000e+00
8.5999999999999996e+00 0.0000000000000000e+00 0.0000000000000000e+00
8.7000000000000011e+00 0.0000000000000000e+00 0.0000000000000000e+00
8.8000000000000007e+00 0.0000000000000000e+00 0.0000000000000000e+00
8.9000000000000004e+00 0.0000000000000000e+00 0.0000000000000000e+00
9.0000000000000000e+00 0.0000000000000000e+00 0.0000000000000000e+00
9.0999999999999996e+00 0.0000000000000000e+00 0.0000000000000000e+00
9.2000000000000011e+00 0.0000000000000000e+00 0.0000000000000000e+00
9.3000000000000007e+00 0.0000000000000000e+00 0.0000000000000000e+00
9.4000000000000004e+00 0.0000000000000000e+00 0.0000000000000000e+00
9.5000000000000000e+00 0.0000000000000000e+00 0.0000000000000000e+00
9.6000000000000014e+00 0.0000000000000000e+00 0.0000000000000000e+00
9.7000000000000011e+00 0.0000000000000000e+00 0.0000000000000000e+00
9.8000000000000007e+00 0.0000000000000000e+00 0.0000000000000000e+00
9.9000000000000004e+00 0.0000000000000000e+00 0.0000000000000000e+00
1.0000000000000000e+01 0.0000000000000000e+00 0.0000000000000000e+00

POINT_DATA 101

VECTORS velocity float
2.8766224641605262e+00 0.0000000000000000e+00 0.0000000000000000e+00
2.8755846123395461e+00 0.0000000000000000e+00 0.0000000000000000e+00
2.8745381454377048e+00 0.0000000000000000e+00 0.0000000000000000e+00
2.8734944462896803e+00 0.0000000000000000e+00 0.0000000000000000e+00
2.8724571751036305e+00 0.0000000000000000e+00 0.0000000000000000e+00
2.8714285375270707e+00 0.0000000000000000e+00 0.0000000000000000e+00
2.8704099866008890e+00 0.0000000000000000e+00 0.0000000000000000e+00
2.8694024181894133e+00 0.0000000000000000e+00 0.0000000000000000e+00
2.8684046396537681e+00 0.0000000000000000e+00 0.0000000000000000e+00
2.8674148738789524e+00 0.0000000000000000e+00 0.0000000000000000e+00
2.8664340542742619e+00 0.0000000000000000e+00 0.0000000000000000e+00
2.8654631665964678e+00 0.0000000000000000e+00 0.0000000000000000e+00
2.8645028368965266e+00 0.0000000000000000e+00 0.0000000000000000e+00
2.8635540567102962e+00 0.0000000000000000e+00 0.0000000000000000e+00
2.8626170074871382e+00 0.0000000000000000e+00 0.0000000000000000e+00
2.8616915342160145e+00 0.0000000000000000e+00 0.0000000000000000e+00
2.8607759066763609e+00 0.0000000000000000e+00 0.0000000000000000e+00
2.8598685490699713e+00 0.0000000000000000e+00 0.0000000000000000e+00
2.8589708842069914e+00 0.0000000000000000e+00 0.0000000000000000e+00
2.8580837207880290e+00 0.0000000000000000e+00 0.0000000000000000e+00
2.8572070187128578e+00 0.0000000000000000e+00 0.0000000000000000e+00
2.8563412200609593e+00 0.0000000000000000e+00 0.0000000000000000e+00
2.8554872284857837e+00 0.0000000000000000e+00 0.0000000000000000e+00
2.8546456444025261e+00 0.0000000000000000e+00 0.0000000000000000e+00
2.8538153319766630e+00 0.0000000000000000e+00 0.0000000000000000e+00
2.8529940837246235e+00 0.0000000000000000e+00 0.0000000000000000e+00
2.8521831738923629e+00 0.0000000000000000e+00 0.0000000000000000e+00
2.8513829877453802e+00 0.0000000000000000e+00 0.0000000000000000e+00
2.8505937078506558e+00 0.0000000000000000e+00 0.0000000000000000e+00
2.8498150496635986e+00 0.0000000000000000e+00 0.0000000000000000e+00
2.8490467680009064e+00 0.0000000000000000e+00 0.0000000000000000e+00
2.8482891503240597e+00 0.0000000000000000e+00 0.0000000000000000e+00
2.8475426022528358e+00 0.0000000000000000e+00 0.0000000000000000e+00
2.8468074601844107e+00 0.0000000000000000e+00 0.0000000000000000e+00
2.8460835567026099e+00 0.0000000000000000e+00 0.0000000000000000e+00
2.8453706657723594e+00 0.0000000000000000e+00 0.0000000000000000e+00
2.8446687276583242e+00 0.0000000000000000e+00 0.0000000000000000e+00
2.8439776928367282e+00 0.0000000000000000e+00 0.0000000000000000e+00
2.8432976580311964e+00 0.0000000000000000e+00 0.0000000000000000e+00
2.8426283686345597e+00 0.0000000000000000e+00 0.0000000000000000e+00
2.8419696321657222e+00 0.0000000000000000e+00 0.0000000000000000e+00
2.8413217499263639e+00 0.0000000000000000e+00 0.0000000000000000e+00
2.8406848685482187e+00 0.0000000000000000e+00 0.0000000000000000e+00
2.8400590463214819e+00 0.0000000000000000e+00 0.0000000000000000e+00
2.8394443127229478e+00 0.0000000000000000e+00 0.0000000000000000e+00
2.8388406876093737e+00 0.0000000000000000e+00 0.0000000000000000e+00
2.8382481878441759e+00 0.0000000000000000e+00 0.0000000000000000e+00
2.8376668289164027e+00 0.0000000000000000e+00 0.0000000000000000e+00
2.8370966261874666e+00 0.0000000000000000e+00 0.0000000000000000e+00
2.8365375947405616e+00 0.0000000000000000e+00 0.0000000000000000e+00
2.8359897487896908e+00 0.0000000000000000e+00 0.0000000000000000e+00
2.8354531028576830e+00 0.0000000000000000e+00 0.0000000000000000e+00
2.8349276709588289e+00 0.0000000000000000e+00 0.0000000000000000e+00
2.8344134665733138e+00 0.0000000000000000e+00 0.0000000000000000e+00
2.8339105032689331e+00 0.0000000000000000e+00 0.0000000000000000e+00
2.8334187945746256e+00 0.0000000000000000e+00 0.0000000000000000e+00
2.8329383533321124e+00 0.0000000000000000e+00 0.0000000000000000e+00
2.8324691921522098e+00 0.0000000000000000e+00 0.0000000000000000e+00
2.8320113239106943e+00 0.0000000000000000e+00 0.0000000000000000e+00
2.8315647608844938e+00 0.0000000000000000e+00 0.0000000000000000e+00
2.8311295149036022e+00 0.0000000000000000e+00 0.0000000000000000e+00
2.8307055978312805e+00 0.0000000000000000e+00 0.0000000000000000e+00
2.8302930212593358e+00 0.0000000000000000e+00 0.0000000000000000e+00
2.8298917962474643e+00 0.0000000000000000e+00 0.0000000000000000e+00
2.8295019337324256e+00 0.0000000000000000e+00 0.0000000000000000e+00
2.8291234444988578e+00 0.0000000000000000e+00 0.0000000000000000e+00
2.8287563390122128e+00 0.0000000000000000e+00 0.0000000000000000e+00
2.8284006275792506e+00 0.0000000000000000e+00 0.0000000000000000e+00
2.8280563202267945e+00 0.0000000000000000e+00 0.0000000000000000e+00
2.8277234266576112e+00 0.0000000000000000e+00 0.0000000000000000e+00
2.8274019563340209e+00 0.0000000000000000e+00 0.0000000000000000e+00
2.8270919185266434e+00 0.0000000000000000e+00 0.0000000000000000e+00
2.8267933222347672e+00 0.0000000000000000e+00 0.0000000000000000e+00
2.8265061761629977e+00 0.0000000000000000e+00 0.0000000000000000e+00
2.8262304887682808e+00 0.0000000000000000e+00 0.0000000000000000e+00
2.8259662681562538e+00 0.0000000000000000e+00 0.0000000000000000e+00
2.8257135223490568e+00 0.0000000000000000e+00 0.0000000000000000e+00
2.8254722589123853e+00 0.0000000000000000e+00 0.0000000000000000e+00
2.8252424854012279e+00 0.0000000000000000e+00 0.0000000000000000e+00
2.8250242090576223e+00 0.0000000000000000e+00 0.0000000000000000e+00
2.8248174368083148e+00 0.0000000000000000e+00 0.0000000000000000e+00
2.8246221752385465e+00 0.0000000000000000e+00 0.0000000000000000e+00
2.8244384307092201e+00 0.0000000000000000e+00 0.0000000000000000e+00
2.8242662094847786e+00 0.0000000000000000e+00 0.0000000000000000e+00
2.8241055174227254e+00 0.0000000000000000e+00 0.0000000000000000e+00
2.8239563601975459e+00 0.0000000000000000e+00 0.0000000000000000e+00
2.8238187429868669e+00 0.0000000000000000e+00 0.0000000000000000e+00
2.8236926714369637e+00 0.0000000000000000e+00 0.0000000000000000e+00
2.8235781500977621e+00 0.0000000000000000e+00 0.0000000000000000e+00
2.8234751845428523e+00 0.0000000000000000e+00 0.0000000000000000e+00
2.8233837766451377e+00 0.0000000000000000e+00 0.0000000000000000e+00
2.8233039375331423e+00 0.0000000000000000e+00 0.0000000000000000e+00
2.8232356541945993e+00 0.0000000000000000e+00 0.0000000000000000e+00
2.8231789706608801e+00 0.0000000000000000e+00 0.0000000000000000e+00
2.8231337941047658e+00 0.0000000000000000e+00 0.0000000000000000e+00
2.8231003548840126e+00 0.0000000000000000e+00 0.0000000000000000e+00
2.8230781171872921e+00 0.0000000000000000e+00 0.0000000000000000e+00
2.8230683567997921e+00 0.0000000000000000e+00 0.0000000000000000e+00
2.8230680745000245e+00 0.0000000000000000e+00 0.0000000000000000e+00
2.8230843280303475e+00 0.0000000000000000e+00 0.0000000000000000e+00
2.8231005815606700e+00 0.0000000000000000e+00 0.0000000000000000e+00


SCALARS pressure float
LOOKUP_TABLE default
1.5249444064661352e+01
1.5100725198391361e+01
1.4952006332121369e+01
1.4803217558538346e+01
1.4654350318539898e+01
1.4505401032074715e+01
1.4356365675910379e+01
1.4207242377750937e+01
1.4058028205299816e+01
1.3908725693807893e+01
1.3759340011341031e+01
1.3609868056599232e+01
1.3460307474863447e+01
1.3310657164915870e+01
1.3160914777898553e+01
1.3011080645318190e+01
1.2861155619873214e+01
1.2711144845644421e+01
1.2561053384607938e+01
1.2410878372289822e+01
1.2260619658628181e+01
1.2110278597638306e+01
1.1959853762355801e+01
1.1809341393364042e+01
1.1658738541745345e+01
1.1508051074948977e+01
1.1357289113794678e+01
1.1206447698677126e+01
1.1055526386097744e+01
1.0904525128217138e+01
1.0753445427909018e+01
1.0602288376725177e+01
1.0451053428277863e+01
1.0299739787380689e+01
1.0148347181563198e+01
9.9968769508794715e+00
9.8453304706300049e+00
9.6937085927895854e+00
9.5420122028086851e+00
9.3902416941274591e+00
9.2383986474533586e+00
9.0864838913418460e+00
8.9344967491782263e+00
8.7824371489079365e+00
8.6303052146180033e+00
8.4781011282586149e+00
8.3258250868083490e+00
8.1734772882907034e+00
8.0210579285744856e+00
7.8685671973993401e+00
7.7160052791917915e+00
7.5633723553762602e+00
7.4106686004680631e+00
7.2578941852242549e+00
7.1050492767191438e+00
6.9521340361642663e+00
6.7991486194217021e+00
6.6460931789573419e+00
6.4929678628630754e+00
6.3397728133505113e+00
6.1865081695486994e+00
6.0331740669074119e+00
5.8797706359324948e+00
5.7262980030674377e+00
5.5727562914916930e+00
5.4191456199769386e+00
5.2654661032320593e+00
5.1117178524709130e+00
4.9579009749783562e+00
4.8040155746306032e+00
4.6500617520887513e+00
4.4960396045602664e+00
4.3419492257465011e+00
4.1877907061025583e+00
4.0335641329278857e+00
3.8792695904719947e+00
3.7249071600319263e+00
3.5704769196817421e+00
3.4159789451157345e+00
3.2614133087989612e+00
3.1067800806738988e+00
2.9520793276356216e+00
2.7973111145549083e+00
2.6424755035661547e+00
2.4875725543748906e+00
2.3326023242198444e+00
2.1775648682452400e+00
2.0224602398693365e+00
1.8672884887202394e+00
1.7120496647466732e+00
1.5567438116563763e+00
1.4013709834755961e+00
1.2459311999412033e+00
1.0904245600727811e+00
9.3485096668921830e-01
7.7921078422677459e-01
6.2350328428045410e-01
4.6773030796596254e-01
3.1188764626243709e-01
1.5598528068233380e-01
0.0000000000000000e+00


SCALARS diameter float
LOOKUP_TABLE default
1.0013818250189359e+00
1.0013659327939197e+00
1.0013507489859896e+00
1.0013373155227148e+00
1.0013246215634026e+00
1.0013118785612791e+00
1.0012986186977084e+00
1.0012842051715336e+00
1.0012694855343558e+00
1.0012561272379243e+00
1.0012431111960540e+00
1.0012300471824276e+00
1.0012168971080686e+00
1.0012032725974627e+00
1.0011889121599815e+00
1.0011743183152344e+00
1.0011597875905349e+00
1.0011468721724792e+00
1.0011341428008973e+00
1.0011212125483930e+00
1.0011081818545369e+00
1.0010949541210203e+00
1.0010810935724699e+00
1.0010666660773773e+00
1.0010522975122198e+00
1.0010389966368667e+00
1.0010253837719962e+00
1.0010117031575534e+00
1.0009980129119700e+00
1.0009843414118624e+00
1.0009710152066971e+00
1.0009576667985449e+00
1.0009442723331421e+00
1.0009305733675142e+00
1.0009167454976120e+00
1.0009029057709347e+00
1.0008890530352648e+00
1.0008751869340389e+00
1.0008613074836177e+00
1.0008474336417752e+00
1.0008338408728021e+00
1.0008202321751745e+00
1.0008066081997642e+00
1.0007929698819380e+00
1.0007793176055997e+00
1.0007656517221368e+00
1.0007519725881435e+00
1.0007382804977747e+00
1.0007245757593985e+00
1.0007108582031257e+00
1.0006971285399016e+00
1.0006833867416765e+00
1.0006696330467382e+00
1.0006558679545554e+00
1.0006420915623564e+00
1.0006283039598585e+00
1.0006145054325681e+00
1.0006006964773577e+00
1.0005868769719373e+00
1.0005730471959158e+00
1.0005592075181469e+00
1.0005453581045345e+00
1.0005314990532759e+00
1.0005176307273742e+00
1.0005037533852399e+00
1.0004898671755180e+00
1.0004759723793168e+00
1.0004620691793564e+00
1.0004481577816098e+00
1.0004342384397358e+00
1.0004203113916328e+00
1.0004063768239686e+00
1.0003924349625553e+00
1.0003784860187910e+00
1.0003645302570734e+00
1.0003505678755256e+00
1.0003365991514186e+00
1.0003226242448569e+00
1.0003086434666193e+00
1.0002946568866602e+00
1.0002806647203428e+00
1.0002666673037033e+00
1.0002526647984622e+00
1.0002386574865056e+00
1.0002246454185393e+00
1.0002106290089878e+00
1.0001966084493177e+00
1.0001825838446450e+00
1.0001685555325297e+00
1.0001545236701030e+00
1.0001404886201251e+00
1.0001264499297029e+00
1.0001124086213320e+00
1.0000983642585939e+00
1.0000843176822793e+00
1.0000702689231928e+00
1.0000562181887169e+00
1.0000421656946847e+00
1.0000281117214638e+00
1.0000140565497748e+00
9.9999999978836973e-01


SCALARS iters float
LOOKUP_TABLE default
3.0000000000000000e+00
3.0000000000000000e+00
3.0000000000000000e+00
3.0000000000000000e+00
3.0000000000000000e+00
3.0000000000000000e+00
3.0000000000000000e+00
3.0000000000000000e+00
3.0000000000000000e+00
3.0000000000000000e+00
3.0000000000000000e+00
3.0000000000000000e+00
3.0000000000000000e+00
3.0000000000000000e+00
3.0000000000000000e+00
3.0000000000000000e+00
3.0000000000000000e+00
3.0000000000000000e+00
3.0000000000000000e+00
3.0000000000000000e+00
3.0000000000000000e+00
3.0000000000000000e+00
3.0000000000000000e+00
3.0000000000000000e+00
3.0000000000000000e+00
3.0000000000000000e+00
3.0000000000000000e+00
3.0000000000000000e+00
3.0000000000000000e+00
3.0000000000000000e+00
3.0000000000000000e+00
3.0000000000000000e+00
3.0000000000000000e+00
3.0000000000000000e+00
3.0000000000000000e+00
3.0000000000000000e+00
3.0000000000000000e+00
3.0000000000000000e+00
3.0000000000000000e+00
3.0000000000000000e+00
3.0000000000000000e+00
3.0000000000000000e+00
3.0000000000000000e+00
3.0000000000000000e+00
3.0000000000000000e+00
3.0000000000000000e+00
3.0000000000000000e+00
3.0000000000000000e+00
3.0000000000000000e+00
3.0000000000000000e+00
3.0000000000000000e+00
3.0000000000000000e+00
3.0000000000000000e+00
3.0000000000000000e+00
3.0000000000000000e+00
3.0000000000000000e+00
3.0000000000000000e+00
3.0000000000000000e+00
3.0000000000000000e+00
3.0000000000000000e+00
3.0000000000000000e+00
3.0000000000000000e+00
3.0000000000000000e+00
3.0000000000000000e+00
3.0000000000000000e+00
3.0000000000000000e+00
3.0000000000000000e+00
3.0000000000000000e+00
3.0000000000000000e+00
3.0000000000000000e+00
3.0000000000000000e+00
3.0000000000000000e+00
3.0000000000000000e+00
3.0000000000000000e+00
3.0000000000000000e+00
3.0000000000000000e+00
3.0000000000000000e+00
3.0000000000000000e+00
3.0000000000000000e+00
3.0000000000000000e+00
3.0000000000000000e+00
3.0000000000000000e+00
3.0000000000000000e+00
3.0000000000000000e+00
3.0000000000000000e+00
3.0000000000000000e+00
3.0000000000000000e+00
3.0000000000000000e+00
3.0000000000000000e+00
3.0000000000000000e+00
3.0000000000000000e+00
3.0000000000000000e+00
3.0000000000000000e+00
3.0000000000000000e+00
3.0000000000000000e+00
3.0000000000000000e+00
3.0000000000000000e+00
3.0000000000000000e+00
3.0000000000000000e+00
3.0000000000000000e+00
3.0000000000000000e+00


