# vtk DataFile Version 2.0

ASCII

DATASET UNSTRUCTURED_GRID

POINTS 101 float

0.0000000000000000e+00 0.0000000000000000e+00 0.0000000000000000e+00
1.0000000000000001e-01 0.0000000000000000e+00 0.0000000000000000e+00
2.0000000000000001e-01 0.0000000000000000e+00 0.0000000000000000e+00
3.0000000000000004e-01 0.0000000000000000e+00 0.0000000000000000e+00
4.0000000000000002e-01 0.0000000000000000e+00 0.0000000000000000e+00
5.0000000000000000e-01 0.0000000000000000e+00 0.0000000000000000e+00
6.0000000000000009e-01 0.0000000000000000e+00 0.0000000000000000e+00
7.0000000000000007e-01 0.0000000000000000e+00 0.0000000000000000e+00
8.0000000000000004e-01 0.0000000000000000e+00 0.0000000000000000e+00
9.0000000000000002e-01 0.0000000000000000e+00 0.0000000000000000e+00
1.0000000000000000e+00 0.0000000000000000e+00 0.0000000000000000e+00
1.1000000000000001e+00 0.0000000000000000e+00 0.0000000000000000e+00
1.2000000000000002e+00 0.0000000000000000e+00 0.0000000000000000e+00
1.3000000000000000e+00 0.0000000000000000e+00 0.0000000000000000e+00
1.4000000000000001e+00 0.0000000000000000e+00 0.0000000000000000e+00
1.5000000000000000e+00 0.0000000000000000e+00 0.0000000000000000e+00
1.6000000000000001e+00 0.0000000000000000e+00 0.0000000000000000e+00
1.7000000000000002e+00 0.0000000000000000e+00 0.0000000000000000e+00
1.8000000000000000e+00 0.0000000000000000e+00 0.0000000000000000e+00
1.9000000000000001e+00 0.0000000000000000e+00 0.0000000000000000e+00
2.0000000000000000e+00 0.0000000000000000e+00 0.0000000000000000e+00
2.1000000000000001e+00 0.0000000000000000e+00 0.0000000000000000e+00
2.2000000000000002e+00 0.0000000000000000e+00 0.0000000000000000e+00
2.3000000000000003e+00 0.0000000000000000e+00 0.0000000000000000e+00
2.4000000000000004e+00 0.0000000000000000e+00 0.0000000000000000e+00
2.5000000000000000e+00 0.0000000000000000e+00 0.0000000000000000e+00
2.6000000000000001e+00 0.0000000000000000e+00 0.0000000000000000e+00
2.7000000000000002e+00 0.0000000000000000e+00 0.0000000000000000e+00
2.8000000000000003e+00 0.0000000000000000e+00 0.0000000000000000e+00
2.9000000000000004e+00 0.0000000000000000e+00 0.0000000000000000e+00
3.0000000000000000e+00 0.0000000000000000e+00 0.0000000000000000e+00
3.1000000000000001e+00 0.0000000000000000e+00 0.0000000000000000e+00
3.2000000000000002e+00 0.0000000000000000e+00 0.0000000000000000e+00
3.3000000000000003e+00 0.0000000000000000e+00 0.0000000000000000e+00
3.4000000000000004e+00 0.0000000000000000e+00 0.0000000000000000e+00
3.5000000000000000e+00 0.0000000000000000e+00 0.0000000000000000e+00
3.6000000000000001e+00 0.0000000000000000e+00 0.0000000000000000e+00
3.7000000000000002e+00 0.0000000000000000e+00 0.0000000000000000e+00
3.8000000000000003e+00 0.0000000000000000e+00 0.0000000000000000e+00
3.9000000000000004e+00 0.0000000000000000e+00 0.0000000000000000e+00
4.0000000000000000e+00 0.0000000000000000e+00 0.0000000000000000e+00
4.1000000000000005e+00 0.0000000000000000e+00 0.0000000000000000e+00
4.2000000000000002e+00 0.0000000000000000e+00 0.0000000000000000e+00
4.2999999999999998e+00 0.0000000000000000e+00 0.0000000000000000e+00
4.4000000000000004e+00 0.0000000000000000e+00 0.0000000000000000e+00
4.5000000000000000e+00 0.0000000000000000e+00 0.0000000000000000e+00
4.6000000000000005e+00 0.0000000000000000e+00 0.0000000000000000e+00
4.7000000000000002e+00 0.0000000000000000e+00 0.0000000000000000e+00
4.8000000000000007e+00 0.0000000000000000e+00 0.0000000000000000e+00
4.9000000000000004e+00 0.0000000000000000e+00 0.0000000000000000e+00
5.0000000000000000e+00 0.0000000000000000e+00 0.0000000000000000e+00
5.1000000000000005e+00 0.0000000000000000e+00 0.0000000000000000e+00
5.2000000000000002e+00 0.0000000000000000e+00 0.0000000000000000e+00
5.3000000000000007e+00 0.0000000000000000e+00 0.0000000000000000e+00
5.4000000000000004e+00 0.0000000000000000e+00 0.0000000000000000e+00
5.5000000000000000e+00 0.0000000000000000e+00 0.0000000000000000e+00
5.6000000000000005e+00 0.0000000000000000e+00 0.0000000000000000e+00
5.7000000000000002e+00 0.0000000000000000e+00 0.0000000000000000e+00
5.8000000000000007e+00 0.0000000000000000e+00 0.0000000000000000e+00
5.9000000000000004e+00 0.0000000000000000e+00 0.0000000000000000e+00
6.0000000000000000e+00 0.0000000000000000e+00 0.0000000000000000e+00
6.1000000000000005e+00 0.0000000000000000e+00 0.0000000000000000e+00
6.2000000000000002e+00 0.0000000000000000e+00 0.0000000000000000e+00
6.3000000000000007e+00 0.0000000000000000e+00 0.0000000000000000e+00
6.4000000000000004e+00 0.0000000000000000e+00 0.0000000000000000e+00
6.5000000000000000e+00 0.0000000000000000e+00 0.0000000000000000e+00
6.6000000000000005e+00 0.0000000000000000e+00 0.0000000000000000e+00
6.7000000000000002e+00 0.0000000000000000e+00 0.0000000000000000e+00
6.8000000000000007e+00 0.0000000000000000e+00 0.0000000000000000e+00
6.9000000000000004e+00 0.0000000000000000e+00 0.0000000000000000e+00
7.0000000000000000e+00 0.0000000000000000e+00 0.0000000000000000e+00
7.1000000000000005e+00 0.0000000000000000e+00 0.0000000000000000e+00
7.2000000000000002e+00 0.0000000000000000e+00 0.0000000000000000e+00
7.3000000000000007e+00 0.0000000000000000e+00 0.0000000000000000e+00
7.4000000000000004e+00 0.0000000000000000e+00 0.0000000000000000e+00
7.5000000000000000e+00 0.0000000000000000e+00 0.0000000000000000e+00
7.6000000000000005e+00 0.0000000000000000e+00 0.0000000000000000e+00
7.7000000000000002e+00 0.0000000000000000e+00 0.0000000000000000e+00
7.8000000000000007e+00 0.0000000000000000e+00 0.0000000000000000e+00
7.9000000000000004e+00 0.0000000000000000e+00 0.0000000000000000e+00
8.0000000000000000e+00 0.0000000000000000e+00 0.0000000000000000e+00
8.0999999999999996e+00 0.0000000000000000e+00 0.0000000000000000e+00
8.2000000000000011e+00 0.0000000000000000e+00 0.0000000000000000e+00
8.3000000000000007e+00 0.0000000000000000e+00 0.0000000000000000e+00
8.4000000000000004e+00 0.0000000000000000e+00 0.0000000000000000e+00
8.5000000000000000e+00 0.0000000000000000e+00 0.0000000000000000e+00
8.5999999999999996e+00 0.0000000000000000e+00 0.0000000000000000e+00
8.7000000000000011e+00 0.0000000000000000e+00 0.0000000000000000e+00
8.8000000000000007e+00 0.0000000000000000e+00 0.0000000000000000e+00
8.9000000000000004e+00 0.0000000000000000e+00 0.0000000000000000e+00
9.0000000000000000e+00 0.0000000000000000e+00 0.0000000000000000e+00
9.0999999999999996e+00 0.0000000000000000e+00 0.0000000000000000e+00
9.2000000000000011e+00 0.0000000000000000e+00 0.0000000000000000e+00
9.3000000000000007e+00 0.0000000000000000e+00 0.0000000000000000e+00
9.4000000000000004e+00 0.0000000000000000e+00 0.0000000000000000e+00
9.5000000000000000e+00 0.0000000000000000e+00 0.0000000000000000e+00
9.6000000000000014e+00 0.0000000000000000e+00 0.0000000000000000e+00
9.7000000000000011e+00 0.0000000000000000e+00 0.0000000000000000e+00
9.8000000000000007e+00 0.0000000000000000e+00 0.0000000000000000e+00
9.9000000000000004e+00 0.0000000000000000e+00 0.0000000000000000e+00
1.0000000000000000e+01 0.0000000000000000e+00 0.0000000000000000e+00

POINT_DATA 101

VECTORS velocity float
2.7593005762738447e+00 0.0000000000000000e+00 0.0000000000000000e+00
2.7588868613184618e+00 0.0000000000000000e+00 0.0000000000000000e+00
2.7585265291545884e+00 0.0000000000000000e+00 0.0000000000000000e+00
2.7581874460157256e+00 0.0000000000000000e+00 0.0000000000000000e+00
2.7578584159765085e+00 0.0000000000000000e+00 0.0000000000000000e+00
2.7575354575048761e+00 0.0000000000000000e+00 0.0000000000000000e+00
2.7572190120778797e+00 0.0000000000000000e+00 0.0000000000000000e+00
2.7569087094492999e+00 0.0000000000000000e+00 0.0000000000000000e+00
2.7565991611773617e+00 0.0000000000000000e+00 0.0000000000000000e+00
2.7562881086095916e+00 0.0000000000000000e+00 0.0000000000000000e+00
2.7559771973522449e+00 0.0000000000000000e+00 0.0000000000000000e+00
2.7556680380033192e+00 0.0000000000000000e+00 0.0000000000000000e+00
2.7553614470070351e+00 0.0000000000000000e+00 0.0000000000000000e+00
2.7550594877146599e+00 0.0000000000000000e+00 0.0000000000000000e+00
2.7547628076099997e+00 0.0000000000000000e+00 0.0000000000000000e+00
2.7544707460124913e+00 0.0000000000000000e+00 0.0000000000000000e+00
2.7541825601365320e+00 0.0000000000000000e+00 0.0000000000000000e+00
2.7538957691475998e+00 0.0000000000000000e+00 0.0000000000000000e+00
2.7536099631829627e+00 0.0000000000000000e+00 0.0000000000000000e+00
2.7533263312774032e+00 0.0000000000000000e+00 0.0000000000000000e+00
2.7530456200382165e+00 0.0000000000000000e+00 0.0000000000000000e+00
2.7527688367542891e+00 0.0000000000000000e+00 0.0000000000000000e+00
2.7524959135310483e+00 0.0000000000000000e+00 0.0000000000000000e+00
2.7522262765546639e+00 0.0000000000000000e+00 0.0000000000000000e+00
2.7519586546057222e+00 0.0000000000000000e+00 0.0000000000000000e+00
2.7516932370802762e+00 0.0000000000000000e+00 0.0000000000000000e+00
2.7514309277016671e+00 0.0000000000000000e+00 0.0000000000000000e+00
2.7511715728657236e+00 0.0000000000000000e+00 0.0000000000000000e+00
2.7509150994672056e+00 0.0000000000000000e+00 0.0000000000000000e+00
2.7506611961481062e+00 0.0000000000000000e+00 0.0000000000000000e+00
2.7504098261646326e+00 0.0000000000000000e+00 0.0000000000000000e+00
2.7501611735955858e+00 0.0000000000000000e+00 0.0000000000000000e+00
2.7499155513997362e+00 0.0000000000000000e+00 0.0000000000000000e+00
2.7496730431759384e+00 0.0000000000000000e+00 0.0000000000000000e+00
2.7494334586445843e+00 0.0000000000000000e+00 0.0000000000000000e+00
2.7491967043923111e+00 0.0000000000000000e+00 0.0000000000000000e+00
2.7489627412216220e+00 0.0000000000000000e+00 0.0000000000000000e+00
2.7487315440751243e+00 0.0000000000000000e+00 0.0000000000000000e+00
2.7485031195207061e+00 0.0000000000000000e+00 0.0000000000000000e+00
2.7482773830617262e+00 0.0000000000000000e+00 0.0000000000000000e+00
2.7480541258682631e+00 0.0000000000000000e+00 0.0000000000000000e+00
2.7478334102576820e+00 0.0000000000000000e+00 0.0000000000000000e+00
2.7476152642236884e+00 0.0000000000000000e+00 0.0000000000000000e+00
2.7473996905468190e+00 0.0000000000000000e+00 0.0000000000000000e+00
2.7471866854295572e+00 0.0000000000000000e+00 0.0000000000000000e+00
2.7469762431153906e+00 0.0000000000000000e+00 0.0000000000000000e+00
2.7467683566875425e+00 0.0000000000000000e+00 0.0000000000000000e+00
2.7465630212217595e+00 0.0000000000000000e+00 0.0000000000000000e+00
2.7463602321276745e+00 0.0000000000000000e+00 0.0000000000000000e+00
2.7461599846390148e+00 0.0000000000000000e+00 0.0000000000000000e+00
2.7459622734505027e+00 0.0000000000000000e+00 0.0000000000000000e+00
2.7457670935142451e+00 0.0000000000000000e+00 0.0000000000000000e+00
2.7455744402623892e+00 0.0000000000000000e+00 0.0000000000000000e+00
2.7453843093158636e+00 0.0000000000000000e+00 0.0000000000000000e+00
2.7451966964449683e+00 0.0000000000000000e+00 0.0000000000000000e+00
2.7450115973667084e+00 0.0000000000000000e+00 0.0000000000000000e+00
2.7448290073986548e+00 0.0000000000000000e+00 0.0000000000000000e+00
2.7446489221438193e+00 0.0000000000000000e+00 0.0000000000000000e+00
2.7444713381361892e+00 0.0000000000000000e+00 0.0000000000000000e+00
2.7442962515669742e+00 0.0000000000000000e+00 0.0000000000000000e+00
2.7441236585693809e+00 0.0000000000000000e+00 0.0000000000000000e+00
2.7439535554356689e+00 0.0000000000000000e+00 0.0000000000000000e+00
2.7437859388009302e+00 0.0000000000000000e+00 0.0000000000000000e+00
2.7436208049907167e+00 0.0000000000000000e+00 0.0000000000000000e+00
2.7434581505069531e+00 0.0000000000000000e+00 0.0000000000000000e+00
2.7432979720320296e+00 0.0000000000000000e+00 0.0000000000000000e+00
2.7431402662862161e+00 0.0000000000000000e+00 0.0000000000000000e+00
2.7429850301490877e+00 0.0000000000000000e+00 0.0000000000000000e+00
2.7428322606224600e+00 0.0000000000000000e+00 0.0000000000000000e+00
2.7426819547213634e+00 0.0000000000000000e+00 0.0000000000000000e+00
2.7425341095810936e+00 0.0000000000000000e+00 0.0000000000000000e+00
2.7423887224634997e+00 0.0000000000000000e+00 0.0000000000000000e+00
2.7422457908507449e+00 0.0000000000000000e+00 0.0000000000000000e+00
2.7421053124256836e+00 0.0000000000000000e+00 0.0000000000000000e+00
2.7419672849136845e+00 0.0000000000000000e+00 0.0000000000000000e+00
2.7418317060430559e+00 0.0000000000000000e+00 0.0000000000000000e+00
2.7416985736455972e+00 0.0000000000000000e+00 0.0000000000000000e+00
2.7415678854422358e+00 0.0000000000000000e+00 0.0000000000000000e+00
2.7414396394326133e+00 0.0000000000000000e+00 0.0000000000000000e+00
2.7413138349263400e+00 0.0000000000000000e+00 0.0000000000000000e+00
2.7411904695102298e+00 0.0000000000000000e+00 0.0000000000000000e+00
2.7410695412104924e+00 0.0000000000000000e+00 0.0000000000000000e+00
2.7409510485314268e+00 0.0000000000000000e+00 0.0000000000000000e+00
2.7408349912794541e+00 0.0000000000000000e+00 0.0000000000000000e+00
2.7407213676299036e+00 0.0000000000000000e+00 0.0000000000000000e+00
2.7406101743636126e+00 0.0000000000000000e+00 0.0000000000000000e+00
2.7405014102122647e+00 0.0000000000000000e+00 0.0000000000000000e+00
2.7403950741074143e+00 0.0000000000000000e+00 0.0000000000000000e+00
2.7402911680551765e+00 0.0000000000000000e+00 0.0000000000000000e+00
2.7401896908862104e+00 0.0000000000000000e+00 0.0000000000000000e+00
2.7400906418093753e+00 0.0000000000000000e+00 0.0000000000000000e+00
2.7399940180352713e+00 0.0000000000000000e+00 0.0000000000000000e+00
2.7398998190078658e+00 0.0000000000000000e+00 0.0000000000000000e+00
2.7398080479327342e+00 0.0000000000000000e+00 0.0000000000000000e+00
2.7397186972732177e+00 0.0000000000000000e+00 0.0000000000000000e+00
2.7396317864555795e+00 0.0000000000000000e+00 0.0000000000000000e+00
2.7395472589294529e+00 0.0000000000000000e+00 0.0000000000000000e+00
2.7394652739853451e+00 0.0000000000000000e+00 0.0000000000000000e+00
2.7393853886412614e+00 0.0000000000000000e+00 0.0000000000000000e+00
2.7393088242842003e+00 0.0000000000000000e+00 0.0000000000000000e+00
2.7392322599271388e+00 0.0000000000000000e+00 0.0000000000000000e+00


SCALARS pressure float
LOOKUP_TABLE default
-2.8261016054757096e+01
-2.7987319808290319e+01
-2.7713623561823546e+01
-2.7439741929839162e+01
-2.7165612347363059e+01
-2.6891214561157408e+01
-2.6616543065500139e+01
-2.6341604588087549e+01
-2.6066399582886472e+01
-2.5790912020222212e+01
-2.5515140113921937e+01
-2.5239093500869480e+01
-2.4962779932755488e+01
-2.4686205712906027e+01
-2.4409382005755798e+01
-2.4132314057305344e+01
-2.3855003629131392e+01
-2.3577450612030908e+01
-2.3299646966602882e+01
-2.3021595199581125e+01
-2.2743304730504228e+01
-2.2464782560772633e+01
-2.2186035961489541e+01
-2.1907067949912008e+01
-2.1627878673891285e+01
-2.1348466664061604e+01
-2.1068836166190604e+01
-2.0788993348687093e+01
-2.0508940671390000e+01
-2.0228681218589553e+01
-1.9948217489856557e+01
-1.9667553115822049e+01
-1.9386692296628723e+01
-1.9105639586837615e+01
-1.8824398448327113e+01
-1.8542971401407165e+01
-1.8261361441013275e+01
-1.7979571724802700e+01
-1.7697605432844973e+01
-1.7415465884073292e+01
-1.7133155978583613e+01
-1.6850678095579539e+01
-1.6568035607331304e+01
-1.6285231708686425e+01
-1.6002269555576227e+01
-1.5719152292254607e+01
-1.5435883055534138e+01
-1.5152464975516637e+01
-1.4868901188017055e+01
-1.4585194827748269e+01
-1.4301349026395304e+01
-1.4017366911073232e+01
-1.3733251607491383e+01
-1.3449006240286828e+01
-1.3164633932468025e+01
-1.2880137805451858e+01
-1.2595520978377378e+01
-1.2310786567149780e+01
-1.2025937686258139e+01
-1.1740977451117001e+01
-1.1455908973650551e+01
-1.1170735363776471e+01
-1.0885459730627289e+01
-1.0600085183084584e+01
-1.0314614826995980e+01
-1.0029051767042326e+01
-9.7433991067313048e+00
-9.4576599480235313e+00
-9.1718373917771956e+00
-8.8859345376366505e+00
-8.5999544838144359e+00
-8.3139003276029904e+00
-8.0277751655916614e+00
-7.7415820941583293e+00
-7.4553242090657283e+00
-7.1690046052516108e+00
-6.8826263763547937e+00
-6.5961926150225478e+00
-6.3097064125737692e+00
-6.0231708604040790e+00
-5.7365890544498770e+00
-5.4499640834636249e+00
-5.1632990374131298e+00
-4.8765970068936459e+00
-4.5898610855578070e+00
-4.3030943611542067e+00
-4.0162999177896959e+00
-3.7294808448963761e+00
-3.4426402305480299e+00
-3.1557811749092122e+00
-2.8689067653495477e+00
-2.5820200911352775e+00
-2.2951242359854835e+00
-2.0082222890267043e+00
-1.7213173566060938e+00
-1.4344124930568185e+00
-1.1475108864197212e+00
-8.6061536192187649e-01
-5.7372974232352691e-01
-2.8685513549763003e-01
0.0000000000000000e+00


SCALARS diameter float
LOOKUP_TABLE default
9.9744658059355273e-01
9.9747749276219455e-01
9.9750436031067724e-01
9.9753015386631805e-01
9.9755482575379950e-01
9.9757950664856410e-01
9.9760277479585013e-01
9.9762504077268932e-01
9.9764838572749126e-01
9.9767375989774987e-01
9.9769979001687614e-01
9.9772583662448311e-01
9.9775183800559897e-01
9.9777719162642742e-01
9.9780170013313774e-01
9.9782597810061868e-01
9.9785022891216768e-01
9.9787525717010250e-01
9.9790044337895745e-01
9.9792556518479003e-01
9.9795080171926409e-01
9.9797586382118764e-01
9.9800065480969524e-01
9.9802574057482973e-01
9.9805087877278431e-01
9.9807637615931166e-01
9.9810146309433745e-01
9.9812651521668183e-01
9.9815158583614294e-01
9.9817669190801817e-01
9.9820201223428695e-01
9.9822735065046697e-01
9.9825265105077110e-01
9.9827786934886942e-01
9.9830310692209945e-01
9.9832835793834585e-01
9.9835362377653170e-01
9.9837890557343134e-01
9.9840420253798479e-01
9.9842952506924176e-01
9.9845500161558964e-01
9.9848048812900192e-01
9.9850598692985326e-01
9.9853149790137419e-01
9.9855702107627786e-01
9.9858255678106556e-01
9.9860810518985821e-01
9.9863366558074207e-01
9.9865923749408470e-01
9.9868482095248090e-01
9.9871041594455634e-01
9.9873602237343251e-01
9.9876163992197997e-01
9.9878726822292818e-01
9.9881290704495673e-01
9.9883855619812900e-01
9.9886421563809613e-01
9.9888988548490065e-01
9.9891556490122690e-01
9.9894125378450194e-01
9.9896695193136675e-01
9.9899265907733015e-01
9.9901837497302903e-01
9.9904409958168472e-01
9.9906983274909078e-01
9.9909557417470096e-01
9.9912132369608952e-01
9.9914708107357331e-01
9.9917284603925360e-01
9.9919861839551061e-01
9.9922439792061479e-01
9.9925018440206448e-01
9.9927597759398645e-01
9.9930177729021530e-01
9.9932758319859594e-01
9.9935339517351451e-01
9.9937921304429844e-01
9.9940503637553024e-01
9.9943086539043169e-01
9.9945669872683374e-01
9.9948253718353885e-01
9.9950838053854074e-01
9.9953422838627737e-01
9.9956008018563036e-01
9.9958593528918271e-01
9.9961179539317768e-01
9.9963765944683991e-01
9.9966352776503953e-01
9.9968939766816367e-01
9.9971527052838849e-01
9.9974114554747051e-01
9.9976702363650138e-01
9.9979290470293536e-01
9.9981878681482317e-01
9.9984467088198614e-01
9.9987055637936628e-01
9.9989644327534066e-01
9.9992233131403341e-01
9.9994821985843418e-01
9.9997410844079482e-01
9.9999999822506758e-01


SCALARS iters float
LOOKUP_TABLE default
3.0000000000000000e+00
3.0000000000000000e+00
3.0000000000000000e+00
3.0000000000000000e+00
3.0000000000000000e+00
3.0000000000000000e+00
3.0000000000000000e+00
3.0000000000000000e+00
3.0000000000000000e+00
3.0000000000000000e+00
3.0000000000000000e+00
3.0000000000000000e+00
3.0000000000000000e+00
3.0000000000000000e+00
3.0000000000000000e+00
3.0000000000000000e+00
3.0000000000000000e+00
3.0000000000000000e+00
3.0000000000000000e+00
3.0000000000000000e+00
3.0000000000000000e+00
3.0000000000000000e+00
3.0000000000000000e+00
3.0000000000000000e+00
3.0000000000000000e+00
3.0000000000000000e+00
3.0000000000000000e+00
3.0000000000000000e+00
3.0000000000000000e+00
3.0000000000000000e+00
3.0000000000000000e+00
3.0000000000000000e+00
3.0000000000000000e+00
3.0000000000000000e+00
3.0000000000000000e+00
3.0000000000000000e+00
3.0000000000000000e+00
3.0000000000000000e+00
3.0000000000000000e+00
3.0000000000000000e+00
3.0000000000000000e+00
3.0000000000000000e+00
3.0000000000000000e+00
3.0000000000000000e+00
3.0000000000000000e+00
3.0000000000000000e+00
3.0000000000000000e+00
3.0000000000000000e+00
3.0000000000000000e+00
3.0000000000000000e+00
3.0000000000000000e+00
3.0000000000000000e+00
3.0000000000000000e+00
3.0000000000000000e+00
3.0000000000000000e+00
3.0000000000000000e+00
3.0000000000000000e+00
3.0000000000000000e+00
3.0000000000000000e+00
3.0000000000000000e+00
3.0000000000000000e+00
3.0000000000000000e+00
3.0000000000000000e+00
3.0000000000000000e+00
3.0000000000000000e+00
3.0000000000000000e+00
3.0000000000000000e+00
3.0000000000000000e+00
3.0000000000000000e+00
3.0000000000000000e+00
3.0000000000000000e+00
3.0000000000000000e+00
3.0000000000000000e+00
3.0000000000000000e+00
3.0000000000000000e+00
3.0000000000000000e+00
3.0000000000000000e+00
3.0000000000000000e+00
3.0000000000000000e+00
3.0000000000000000e+00
3.0000000000000000e+00
3.0000000000000000e+00
3.0000000000000000e+00
3.0000000000000000e+00
3.0000000000000000e+00
3.0000000000000000e+00
3.0000000000000000e+00
3.0000000000000000e+00
3.0000000000000000e+00
3.0000000000000000e+00
3.0000000000000000e+00
3.0000000000000000e+00
3.0000000000000000e+00
3.0000000000000000e+00
3.0000000000000000e+00
3.0000000000000000e+00
3.0000000000000000e+00
3.0000000000000000e+00
3.0000000000000000e+00
3.0000000000000000e+00
3.0000000000000000e+00


