# vtk DataFile Version 2.0

ASCII

DATASET UNSTRUCTURED_GRID

POINTS 101 float

0.0000000000000000e+00 0.0000000000000000e+00 0.0000000000000000e+00
1.0000000000000001e-01 0.0000000000000000e+00 0.0000000000000000e+00
2.0000000000000001e-01 0.0000000000000000e+00 0.0000000000000000e+00
3.0000000000000004e-01 0.0000000000000000e+00 0.0000000000000000e+00
4.0000000000000002e-01 0.0000000000000000e+00 0.0000000000000000e+00
5.0000000000000000e-01 0.0000000000000000e+00 0.0000000000000000e+00
6.0000000000000009e-01 0.0000000000000000e+00 0.0000000000000000e+00
7.0000000000000007e-01 0.0000000000000000e+00 0.0000000000000000e+00
8.0000000000000004e-01 0.0000000000000000e+00 0.0000000000000000e+00
9.0000000000000002e-01 0.0000000000000000e+00 0.0000000000000000e+00
1.0000000000000000e+00 0.0000000000000000e+00 0.0000000000000000e+00
1.1000000000000001e+00 0.0000000000000000e+00 0.0000000000000000e+00
1.2000000000000002e+00 0.0000000000000000e+00 0.0000000000000000e+00
1.3000000000000000e+00 0.0000000000000000e+00 0.0000000000000000e+00
1.4000000000000001e+00 0.0000000000000000e+00 0.0000000000000000e+00
1.5000000000000000e+00 0.0000000000000000e+00 0.0000000000000000e+00
1.6000000000000001e+00 0.0000000000000000e+00 0.0000000000000000e+00
1.7000000000000002e+00 0.0000000000000000e+00 0.0000000000000000e+00
1.8000000000000000e+00 0.0000000000000000e+00 0.0000000000000000e+00
1.9000000000000001e+00 0.0000000000000000e+00 0.0000000000000000e+00
2.0000000000000000e+00 0.0000000000000000e+00 0.0000000000000000e+00
2.1000000000000001e+00 0.0000000000000000e+00 0.0000000000000000e+00
2.2000000000000002e+00 0.0000000000000000e+00 0.0000000000000000e+00
2.3000000000000003e+00 0.0000000000000000e+00 0.0000000000000000e+00
2.4000000000000004e+00 0.0000000000000000e+00 0.0000000000000000e+00
2.5000000000000000e+00 0.0000000000000000e+00 0.0000000000000000e+00
2.6000000000000001e+00 0.0000000000000000e+00 0.0000000000000000e+00
2.7000000000000002e+00 0.0000000000000000e+00 0.0000000000000000e+00
2.8000000000000003e+00 0.0000000000000000e+00 0.0000000000000000e+00
2.9000000000000004e+00 0.0000000000000000e+00 0.0000000000000000e+00
3.0000000000000000e+00 0.0000000000000000e+00 0.0000000000000000e+00
3.1000000000000001e+00 0.0000000000000000e+00 0.0000000000000000e+00
3.2000000000000002e+00 0.0000000000000000e+00 0.0000000000000000e+00
3.3000000000000003e+00 0.0000000000000000e+00 0.0000000000000000e+00
3.4000000000000004e+00 0.0000000000000000e+00 0.0000000000000000e+00
3.5000000000000000e+00 0.0000000000000000e+00 0.0000000000000000e+00
3.6000000000000001e+00 0.0000000000000000e+00 0.0000000000000000e+00
3.7000000000000002e+00 0.0000000000000000e+00 0.0000000000000000e+00
3.8000000000000003e+00 0.0000000000000000e+00 0.0000000000000000e+00
3.9000000000000004e+00 0.0000000000000000e+00 0.0000000000000000e+00
4.0000000000000000e+00 0.0000000000000000e+00 0.0000000000000000e+00
4.1000000000000005e+00 0.0000000000000000e+00 0.0000000000000000e+00
4.2000000000000002e+00 0.0000000000000000e+00 0.0000000000000000e+00
4.2999999999999998e+00 0.0000000000000000e+00 0.0000000000000000e+00
4.4000000000000004e+00 0.0000000000000000e+00 0.0000000000000000e+00
4.5000000000000000e+00 0.0000000000000000e+00 0.0000000000000000e+00
4.6000000000000005e+00 0.0000000000000000e+00 0.0000000000000000e+00
4.7000000000000002e+00 0.0000000000000000e+00 0.0000000000000000e+00
4.8000000000000007e+00 0.0000000000000000e+00 0.0000000000000000e+00
4.9000000000000004e+00 0.0000000000000000e+00 0.0000000000000000e+00
5.0000000000000000e+00 0.0000000000000000e+00 0.0000000000000000e+00
5.1000000000000005e+00 0.0000000000000000e+00 0.0000000000000000e+00
5.2000000000000002e+00 0.0000000000000000e+00 0.0000000000000000e+00
5.3000000000000007e+00 0.0000000000000000e+00 0.0000000000000000e+00
5.4000000000000004e+00 0.0000000000000000e+00 0.0000000000000000e+00
5.5000000000000000e+00 0.0000000000000000e+00 0.0000000000000000e+00
5.6000000000000005e+00 0.0000000000000000e+00 0.0000000000000000e+00
5.7000000000000002e+00 0.0000000000000000e+00 0.0000000000000000e+00
5.8000000000000007e+00 0.0000000000000000e+00 0.0000000000000000e+00
5.9000000000000004e+00 0.0000000000000000e+00 0.0000000000000000e+00
6.0000000000000000e+00 0.0000000000000000e+00 0.0000000000000000e+00
6.1000000000000005e+00 0.0000000000000000e+00 0.0000000000000000e+00
6.2000000000000002e+00 0.0000000000000000e+00 0.0000000000000000e+00
6.3000000000000007e+00 0.0000000000000000e+00 0.0000000000000000e+00
6.4000000000000004e+00 0.0000000000000000e+00 0.0000000000000000e+00
6.5000000000000000e+00 0.0000000000000000e+00 0.0000000000000000e+00
6.6000000000000005e+00 0.0000000000000000e+00 0.0000000000000000e+00
6.7000000000000002e+00 0.0000000000000000e+00 0.0000000000000000e+00
6.8000000000000007e+00 0.0000000000000000e+00 0.0000000000000000e+00
6.9000000000000004e+00 0.0000000000000000e+00 0.0000000000000000e+00
7.0000000000000000e+00 0.0000000000000000e+00 0.0000000000000000e+00
7.1000000000000005e+00 0.0000000000000000e+00 0.0000000000000000e+00
7.2000000000000002e+00 0.0000000000000000e+00 0.0000000000000000e+00
7.3000000000000007e+00 0.0000000000000000e+00 0.0000000000000000e+00
7.4000000000000004e+00 0.0000000000000000e+00 0.0000000000000000e+00
7.5000000000000000e+00 0.0000000000000000e+00 0.0000000000000000e+00
7.6000000000000005e+00 0.0000000000000000e+00 0.0000000000000000e+00
7.7000000000000002e+00 0.0000000000000000e+00 0.0000000000000000e+00
7.8000000000000007e+00 0.0000000000000000e+00 0.0000000000000000e+00
7.9000000000000004e+00 0.0000000000000000e+00 0.0000000000000000e+00
8.0000000000000000e+00 0.0000000000000000e+00 0.0000000000000000e+00
8.0999999999999996e+00 0.0000000000000000e+00 0.0000000000000000e+00
8.2000000000000011e+00 0.0000000000000000e+00 0.0000000000000000e+00
8.3000000000000007e+00 0.0000000000000000e+00 0.0000000000000000e+00
8.4000000000000004e+00 0.0000000000000000e+00 0.0000000000000000e+00
8.5000000000000000e+00 0.0000000000000000e+00 0.0000000000000000e+00
8.5999999999999996e+00 0.0000000000000000e+00 0.0000000000000000e+00
8.7000000000000011e+00 0.0000000000000000e+00 0.0000000000000000e+00
8.8000000000000007e+00 0.0000000000000000e+00 0.0000000000000000e+00
8.9000000000000004e+00 0.0000000000000000e+00 0.0000000000000000e+00
9.0000000000000000e+00 0.0000000000000000e+00 0.0000000000000000e+00
9.0999999999999996e+00 0.0000000000000000e+00 0.0000000000000000e+00
9.2000000000000011e+00 0.0000000000000000e+00 0.0000000000000000e+00
9.3000000000000007e+00 0.0000000000000000e+00 0.0000000000000000e+00
9.4000000000000004e+00 0.0000000000000000e+00 0.0000000000000000e+00
9.5000000000000000e+00 0.0000000000000000e+00 0.0000000000000000e+00
9.6000000000000014e+00 0.0000000000000000e+00 0.0000000000000000e+00
9.7000000000000011e+00 0.0000000000000000e+00 0.0000000000000000e+00
9.8000000000000007e+00 0.0000000000000000e+00 0.0000000000000000e+00
9.9000000000000004e+00 0.0000000000000000e+00 0.0000000000000000e+00
1.0000000000000000e+01 0.0000000000000000e+00 0.0000000000000000e+00

POINT_DATA 101

VECTORS velocity float
3.5812140186189612e+00 0.0000000000000000e+00 0.0000000000000000e+00
3.5814986632287282e+00 0.0000000000000000e+00 0.0000000000000000e+00
3.5817645522315553e+00 0.0000000000000000e+00 0.0000000000000000e+00
3.5820187729826776e+00 0.0000000000000000e+00 0.0000000000000000e+00
3.5822658679626498e+00 0.0000000000000000e+00 0.0000000000000000e+00
3.5825094117938896e+00 0.0000000000000000e+00 0.0000000000000000e+00
3.5827526763583375e+00 0.0000000000000000e+00 0.0000000000000000e+00
3.5829967178310600e+00 0.0000000000000000e+00 0.0000000000000000e+00
3.5832388023797015e+00 0.0000000000000000e+00 0.0000000000000000e+00
3.5834768711853084e+00 0.0000000000000000e+00 0.0000000000000000e+00
3.5837116592845040e+00 0.0000000000000000e+00 0.0000000000000000e+00
3.5839438810326962e+00 0.0000000000000000e+00 0.0000000000000000e+00
3.5841743439372675e+00 0.0000000000000000e+00 0.0000000000000000e+00
3.5844048019512273e+00 0.0000000000000000e+00 0.0000000000000000e+00
3.5846353069571784e+00 0.0000000000000000e+00 0.0000000000000000e+00
3.5848652099640010e+00 0.0000000000000000e+00 0.0000000000000000e+00
3.5850919714692493e+00 0.0000000000000000e+00 0.0000000000000000e+00
3.5853136162405566e+00 0.0000000000000000e+00 0.0000000000000000e+00
3.5855321069977837e+00 0.0000000000000000e+00 0.0000000000000000e+00
3.5857487592211168e+00 0.0000000000000000e+00 0.0000000000000000e+00
3.5859635332028130e+00 0.0000000000000000e+00 0.0000000000000000e+00
3.5861765399256145e+00 0.0000000000000000e+00 0.0000000000000000e+00
3.5863881999154863e+00 0.0000000000000000e+00 0.0000000000000000e+00
3.5865987430955348e+00 0.0000000000000000e+00 0.0000000000000000e+00
3.5868079976129636e+00 0.0000000000000000e+00 0.0000000000000000e+00
3.5870152935786814e+00 0.0000000000000000e+00 0.0000000000000000e+00
3.5872199159355098e+00 0.0000000000000000e+00 0.0000000000000000e+00
3.5874222069188724e+00 0.0000000000000000e+00 0.0000000000000000e+00
3.5876224139133899e+00 0.0000000000000000e+00 0.0000000000000000e+00
3.5878200906281723e+00 0.0000000000000000e+00 0.0000000000000000e+00
3.5880148723757133e+00 0.0000000000000000e+00 0.0000000000000000e+00
3.5882071335776673e+00 0.0000000000000000e+00 0.0000000000000000e+00
3.5883972904006689e+00 0.0000000000000000e+00 0.0000000000000000e+00
3.5885858114043052e+00 0.0000000000000000e+00 0.0000000000000000e+00
3.5887725494985503e+00 0.0000000000000000e+00 0.0000000000000000e+00
3.5889572706966129e+00 0.0000000000000000e+00 0.0000000000000000e+00
3.5891398768495493e+00 0.0000000000000000e+00 0.0000000000000000e+00
3.5893203256261259e+00 0.0000000000000000e+00 0.0000000000000000e+00
3.5894985887293975e+00 0.0000000000000000e+00 0.0000000000000000e+00
3.5896746844245921e+00 0.0000000000000000e+00 0.0000000000000000e+00
3.5898486985801381e+00 0.0000000000000000e+00 0.0000000000000000e+00
3.5900206034113715e+00 0.0000000000000000e+00 0.0000000000000000e+00
3.5901903860767095e+00 0.0000000000000000e+00 0.0000000000000000e+00
3.5903580380750859e+00 0.0000000000000000e+00 0.0000000000000000e+00
3.5905235527333992e+00 0.0000000000000000e+00 0.0000000000000000e+00
3.5906869239398254e+00 0.0000000000000000e+00 0.0000000000000000e+00
3.5908481458805248e+00 0.0000000000000000e+00 0.0000000000000000e+00
3.5910072125117178e+00 0.0000000000000000e+00 0.0000000000000000e+00
3.5911641185323626e+00 0.0000000000000000e+00 0.0000000000000000e+00
3.5913188587254519e+00 0.0000000000000000e+00 0.0000000000000000e+00
3.5914714274581239e+00 0.0000000000000000e+00 0.0000000000000000e+00
3.5916218198096281e+00 0.0000000000000000e+00 0.0000000000000000e+00
3.5917700304733398e+00 0.0000000000000000e+00 0.0000000000000000e+00
3.5919160541051682e+00 0.0000000000000000e+00 0.0000000000000000e+00
3.5920598858826915e+00 0.0000000000000000e+00 0.0000000000000000e+00
3.5922015211379619e+00 0.0000000000000000e+00 0.0000000000000000e+00
3.5923409547308385e+00 0.0000000000000000e+00 0.0000000000000000e+00
3.5924781818470484e+00 0.0000000000000000e+00 0.0000000000000000e+00
3.5926131982398664e+00 0.0000000000000000e+00 0.0000000000000000e+00
3.5927459992980246e+00 0.0000000000000000e+00 0.0000000000000000e+00
3.5928765803393410e+00 0.0000000000000000e+00 0.0000000000000000e+00
3.5930049371444905e+00 0.0000000000000000e+00 0.0000000000000000e+00
3.5931310655446529e+00 0.0000000000000000e+00 0.0000000000000000e+00
3.5932549611085673e+00 0.0000000000000000e+00 0.0000000000000000e+00
3.5933766196557264e+00 0.0000000000000000e+00 0.0000000000000000e+00
3.5934960371448224e+00 0.0000000000000000e+00 0.0000000000000000e+00
3.5936132095554698e+00 0.0000000000000000e+00 0.0000000000000000e+00
3.5937281330487258e+00 0.0000000000000000e+00 0.0000000000000000e+00
3.5938408038451999e+00 0.0000000000000000e+00 0.0000000000000000e+00
3.5939512181728381e+00 0.0000000000000000e+00 0.0000000000000000e+00
3.5940593723680445e+00 0.0000000000000000e+00 0.0000000000000000e+00
3.5941652628853009e+00 0.0000000000000000e+00 0.0000000000000000e+00
3.5942688862544827e+00 0.0000000000000000e+00 0.0000000000000000e+00
3.5943702390367553e+00 0.0000000000000000e+00 0.0000000000000000e+00
3.5944693179212757e+00 0.0000000000000000e+00 0.0000000000000000e+00
3.5945661195861498e+00 0.0000000000000000e+00 0.0000000000000000e+00
3.5946606409103410e+00 0.0000000000000000e+00 0.0000000000000000e+00
3.5947528787597114e+00 0.0000000000000000e+00 0.0000000000000000e+00
3.5948428301467175e+00 0.0000000000000000e+00 0.0000000000000000e+00
3.5949304924052772e+00 0.0000000000000000e+00 0.0000000000000000e+00
3.5950158626131907e+00 0.0000000000000000e+00 0.0000000000000000e+00
3.5950989380357559e+00 0.0000000000000000e+00 0.0000000000000000e+00
3.5951797159060006e+00 0.0000000000000000e+00 0.0000000000000000e+00
3.5952581937402783e+00 0.0000000000000000e+00 0.0000000000000000e+00
3.5953343690270887e+00 0.0000000000000000e+00 0.0000000000000000e+00
3.5954082392448474e+00 0.0000000000000000e+00 0.0000000000000000e+00
3.5954798023140269e+00 0.0000000000000000e+00 0.0000000000000000e+00
3.5955490555456668e+00 0.0000000000000000e+00 0.0000000000000000e+00
3.5956159966486321e+00 0.0000000000000000e+00 0.0000000000000000e+00
3.5956806233974792e+00 0.0000000000000000e+00 0.0000000000000000e+00
3.5957429348262191e+00 0.0000000000000000e+00 0.0000000000000000e+00
3.5958029289995013e+00 0.0000000000000000e+00 0.0000000000000000e+00
3.5958606041973495e+00 0.0000000000000000e+00 0.0000000000000000e+00
3.5959159562506811e+00 0.0000000000000000e+00 0.0000000000000000e+00
3.5959689910703578e+00 0.0000000000000000e+00 0.0000000000000000e+00
3.5960196839568987e+00 0.0000000000000000e+00 0.0000000000000000e+00
3.5960680975033190e+00 0.0000000000000000e+00 0.0000000000000000e+00
3.5961140562049092e+00 0.0000000000000000e+00 0.0000000000000000e+00
3.5961580242877713e+00 0.0000000000000000e+00 0.0000000000000000e+00
3.5961987690384909e+00 0.0000000000000000e+00 0.0000000000000000e+00
3.5962395137892105e+00 0.0000000000000000e+00 0.0000000000000000e+00


SCALARS pressure float
LOOKUP_TABLE default
1.0853244757990547e+01
1.0749075853957098e+01
1.0644906949923651e+01
1.0540665357338288e+01
1.0436321665780097e+01
1.0331858821148616e+01
1.0227264208403771e+01
1.0122526313326810e+01
1.0017642446945917e+01
9.9126241062006706e+00
9.8074802195540691e+00
9.7022097627919557e+00
9.5968116629709108e+00
9.4912843542518530e+00
9.3856228715811127e+00
9.2798284462887377e+00
9.1739050574671523e+00
9.0678637481035587e+00
8.9617134265988554e+00
8.8554486169094027e+00
8.7490657782541312e+00
8.6425664185383280e+00
8.5359519177963072e+00
8.4292228478308466e+00
8.3223804684877294e+00
8.2154260897019267e+00
8.1083626777080866e+00
8.0011948212478483e+00
7.8939231326022004e+00
7.7865483660119992e+00
7.6790737464752015e+00
7.5715022335694870e+00
7.4638341611321355e+00
7.3560696409612554e+00
7.2482085791496980e+00
7.1402530611376518e+00
7.0322055163806789e+00
6.9240679110276409e+00
6.8158420031572930e+00
6.7075295266409025e+00
6.5991319718646926e+00
6.4906504809186005e+00
6.3820866773410749e+00
6.2734421704497567e+00
6.1647185675146865e+00
6.0559174757033407e+00
5.9470405037109693e+00
5.8380892615348756e+00
5.7290653619011422e+00
5.6199704166384636e+00
5.5108060389208262e+00
5.4015738448394455e+00
5.2922754495115285e+00
5.1829124708793408e+00
5.0734865283979378e+00
4.9639992410639708e+00
4.8544522287674523e+00
4.7448471144579347e+00
4.6351855211794586e+00
4.5254690712497174e+00
4.4156993895291929e+00
4.3058781023597907e+00
4.1960068355938249e+00
4.0860872160501103e+00
3.9761208726181496e+00
3.8661094344122033e+00
3.7560545311246942e+00
3.6459577933998784e+00
3.5358208522469763e+00
3.4256453394307345e+00
3.3154328876199815e+00
3.2051851300130547e+00
3.0949037002713542e+00
2.9845902326487734e+00
2.8742463621151342e+00
2.7638737239534574e+00
2.6534739542661554e+00
2.5430486891361328e+00
2.4325995654142942e+00
2.3221282200400948e+00
2.2116362894554968e+00
2.1011254116497851e+00
1.9905972244914210e+00
1.8800533665080839e+00
1.7694954757282826e+00
1.6589251908345510e+00
1.5483441508677607e+00
1.4377539936600550e+00
1.3271563599235243e+00
1.2165528893108033e+00
1.1059452216088612e+00
9.9533499164890504e-01
8.8472383909035857e-01
7.7411340084482905e-01
6.6350532855830524e-01
5.5290122441853329e-01
4.4230283159389633e-01
3.3171150829027196e-01
2.2112963345143097e-01
1.1055690662273383e-01
0.0000000000000000e+00


SCALARS diameter float
LOOKUP_TABLE default
1.0009829333981481e+00
1.0009720112827560e+00
1.0009613758843776e+00
1.0009519863988945e+00
1.0009432733141985e+00
1.0009345494039921e+00
1.0009249268923719e+00
1.0009143065564807e+00
1.0009038912498316e+00
1.0008946838358967e+00
1.0008858337985869e+00
1.0008769766951842e+00
1.0008680322325063e+00
1.0008583248216827e+00
1.0008477842382628e+00
1.0008371219731007e+00
1.0008266891398307e+00
1.0008178745321987e+00
1.0008090726874417e+00
1.0007999019579428e+00
1.0007906336585743e+00
1.0007813878909593e+00
1.0007718177914249e+00
1.0007619109331647e+00
1.0007516221290482e+00
1.0007413845194906e+00
1.0007316416546141e+00
1.0007218687277037e+00
1.0007120941324701e+00
1.0007023534961190e+00
1.0006930291546574e+00
1.0006836941719899e+00
1.0006743417037873e+00
1.0006647075310968e+00
1.0006549529320825e+00
1.0006451955413354e+00
1.0006354345723871e+00
1.0006256697861549e+00
1.0006159011898439e+00
1.0006061262875003e+00
1.0005962987654533e+00
1.0005864641549647e+00
1.0005766233164808e+00
1.0005667768856550e+00
1.0005569250909072e+00
1.0005470681165236e+00
1.0005372061361828e+00
1.0005273393565379e+00
1.0005174679690074e+00
1.0005075917051374e+00
1.0004977110612272e+00
1.0004878258852810e+00
1.0004779363193876e+00
1.0004680426664232e+00
1.0004581449022736e+00
1.0004482430305561e+00
1.0004383372540333e+00
1.0004284278160198e+00
1.0004185145212792e+00
1.0004085975283956e+00
1.0003986770641973e+00
1.0003887531412305e+00
1.0003788257463986e+00
1.0003688951132532e+00
1.0003589613588806e+00
1.0003490245125275e+00
1.0003390847188283e+00
1.0003291420297304e+00
1.0003191965234290e+00
1.0003092483118812e+00
1.0002992975024849e+00
1.0002893441628973e+00
1.0002793883844829e+00
1.0002694302656412e+00
1.0002594699034262e+00
1.0002495073918769e+00
1.0002395428534763e+00
1.0002295763165077e+00
1.0002196079797585e+00
1.0002096377243501e+00
1.0001996657630428e+00
1.0001896921508924e+00
1.0001797170251645e+00
1.0001697404448533e+00
1.0001597624633902e+00
1.0001497832433739e+00
1.0001398027808281e+00
1.0001298212353493e+00
1.0001198389542441e+00
1.0001098556798278e+00
1.0000998716138290e+00
1.0000898860794623e+00
1.0000799003410390e+00
1.0000699136464644e+00
1.0000599266689483e+00
1.0000499392989857e+00
1.0000399516411611e+00
1.0000299637690104e+00
1.0000199758342965e+00
1.0000099879753392e+00
1.0000000000074065e+00


SCALARS iters float
LOOKUP_TABLE default
3.0000000000000000e+00
3.0000000000000000e+00
3.0000000000000000e+00
3.0000000000000000e+00
3.0000000000000000e+00
3.0000000000000000e+00
3.0000000000000000e+00
3.0000000000000000e+00
3.0000000000000000e+00
3.0000000000000000e+00
3.0000000000000000e+00
3.0000000000000000e+00
3.0000000000000000e+00
3.0000000000000000e+00
3.0000000000000000e+00
3.0000000000000000e+00
3.0000000000000000e+00
3.0000000000000000e+00
3.0000000000000000e+00
3.0000000000000000e+00
3.0000000000000000e+00
3.0000000000000000e+00
3.0000000000000000e+00
3.0000000000000000e+00
3.0000000000000000e+00
3.0000000000000000e+00
3.0000000000000000e+00
3.0000000000000000e+00
3.0000000000000000e+00
3.0000000000000000e+00
3.0000000000000000e+00
3.0000000000000000e+00
3.0000000000000000e+00
3.0000000000000000e+00
3.0000000000000000e+00
3.0000000000000000e+00
3.0000000000000000e+00
3.0000000000000000e+00
3.0000000000000000e+00
3.0000000000000000e+00
3.0000000000000000e+00
3.0000000000000000e+00
3.0000000000000000e+00
3.0000000000000000e+00
3.0000000000000000e+00
3.0000000000000000e+00
3.0000000000000000e+00
3.0000000000000000e+00
3.0000000000000000e+00
3.0000000000000000e+00
3.0000000000000000e+00
3.0000000000000000e+00
3.0000000000000000e+00
3.0000000000000000e+00
3.0000000000000000e+00
3.0000000000000000e+00
3.0000000000000000e+00
3.0000000000000000e+00
3.0000000000000000e+00
3.0000000000000000e+00
3.0000000000000000e+00
3.0000000000000000e+00
3.0000000000000000e+00
3.0000000000000000e+00
3.0000000000000000e+00
3.0000000000000000e+00
3.0000000000000000e+00
3.0000000000000000e+00
3.0000000000000000e+00
3.0000000000000000e+00
3.0000000000000000e+00
3.0000000000000000e+00
3.0000000000000000e+00
3.0000000000000000e+00
3.0000000000000000e+00
3.0000000000000000e+00
3.0000000000000000e+00
3.0000000000000000e+00
3.0000000000000000e+00
3.0000000000000000e+00
3.0000000000000000e+00
3.0000000000000000e+00
3.0000000000000000e+00
3.0000000000000000e+00
3.0000000000000000e+00
3.0000000000000000e+00
3.0000000000000000e+00
3.0000000000000000e+00
3.0000000000000000e+00
3.0000000000000000e+00
3.0000000000000000e+00
3.0000000000000000e+00
3.0000000000000000e+00
3.0000000000000000e+00
3.0000000000000000e+00
3.0000000000000000e+00
3.0000000000000000e+00
3.0000000000000000e+00
3.0000000000000000e+00
3.0000000000000000e+00
3.0000000000000000e+00


