# vtk DataFile Version 2.0

ASCII

DATASET UNSTRUCTURED_GRID

POINTS 101 float

0.0000000000000000e+00 0.0000000000000000e+00 0.0000000000000000e+00
1.0000000000000001e-01 0.0000000000000000e+00 0.0000000000000000e+00
2.0000000000000001e-01 0.0000000000000000e+00 0.0000000000000000e+00
3.0000000000000004e-01 0.0000000000000000e+00 0.0000000000000000e+00
4.0000000000000002e-01 0.0000000000000000e+00 0.0000000000000000e+00
5.0000000000000000e-01 0.0000000000000000e+00 0.0000000000000000e+00
6.0000000000000009e-01 0.0000000000000000e+00 0.0000000000000000e+00
7.0000000000000007e-01 0.0000000000000000e+00 0.0000000000000000e+00
8.0000000000000004e-01 0.0000000000000000e+00 0.0000000000000000e+00
9.0000000000000002e-01 0.0000000000000000e+00 0.0000000000000000e+00
1.0000000000000000e+00 0.0000000000000000e+00 0.0000000000000000e+00
1.1000000000000001e+00 0.0000000000000000e+00 0.0000000000000000e+00
1.2000000000000002e+00 0.0000000000000000e+00 0.0000000000000000e+00
1.3000000000000000e+00 0.0000000000000000e+00 0.0000000000000000e+00
1.4000000000000001e+00 0.0000000000000000e+00 0.0000000000000000e+00
1.5000000000000000e+00 0.0000000000000000e+00 0.0000000000000000e+00
1.6000000000000001e+00 0.0000000000000000e+00 0.0000000000000000e+00
1.7000000000000002e+00 0.0000000000000000e+00 0.0000000000000000e+00
1.8000000000000000e+00 0.0000000000000000e+00 0.0000000000000000e+00
1.9000000000000001e+00 0.0000000000000000e+00 0.0000000000000000e+00
2.0000000000000000e+00 0.0000000000000000e+00 0.0000000000000000e+00
2.1000000000000001e+00 0.0000000000000000e+00 0.0000000000000000e+00
2.2000000000000002e+00 0.0000000000000000e+00 0.0000000000000000e+00
2.3000000000000003e+00 0.0000000000000000e+00 0.0000000000000000e+00
2.4000000000000004e+00 0.0000000000000000e+00 0.0000000000000000e+00
2.5000000000000000e+00 0.0000000000000000e+00 0.0000000000000000e+00
2.6000000000000001e+00 0.0000000000000000e+00 0.0000000000000000e+00
2.7000000000000002e+00 0.0000000000000000e+00 0.0000000000000000e+00
2.8000000000000003e+00 0.0000000000000000e+00 0.0000000000000000e+00
2.9000000000000004e+00 0.0000000000000000e+00 0.0000000000000000e+00
3.0000000000000000e+00 0.0000000000000000e+00 0.0000000000000000e+00
3.1000000000000001e+00 0.0000000000000000e+00 0.0000000000000000e+00
3.2000000000000002e+00 0.0000000000000000e+00 0.0000000000000000e+00
3.3000000000000003e+00 0.0000000000000000e+00 0.0000000000000000e+00
3.4000000000000004e+00 0.0000000000000000e+00 0.0000000000000000e+00
3.5000000000000000e+00 0.0000000000000000e+00 0.0000000000000000e+00
3.6000000000000001e+00 0.0000000000000000e+00 0.0000000000000000e+00
3.7000000000000002e+00 0.0000000000000000e+00 0.0000000000000000e+00
3.8000000000000003e+00 0.0000000000000000e+00 0.0000000000000000e+00
3.9000000000000004e+00 0.0000000000000000e+00 0.0000000000000000e+00
4.0000000000000000e+00 0.0000000000000000e+00 0.0000000000000000e+00
4.1000000000000005e+00 0.0000000000000000e+00 0.0000000000000000e+00
4.2000000000000002e+00 0.0000000000000000e+00 0.0000000000000000e+00
4.2999999999999998e+00 0.0000000000000000e+00 0.0000000000000000e+00
4.4000000000000004e+00 0.0000000000000000e+00 0.0000000000000000e+00
4.5000000000000000e+00 0.0000000000000000e+00 0.0000000000000000e+00
4.6000000000000005e+00 0.0000000000000000e+00 0.0000000000000000e+00
4.7000000000000002e+00 0.0000000000000000e+00 0.0000000000000000e+00
4.8000000000000007e+00 0.0000000000000000e+00 0.0000000000000000e+00
4.9000000000000004e+00 0.0000000000000000e+00 0.0000000000000000e+00
5.0000000000000000e+00 0.0000000000000000e+00 0.0000000000000000e+00
5.1000000000000005e+00 0.0000000000000000e+00 0.0000000000000000e+00
5.2000000000000002e+00 0.0000000000000000e+00 0.0000000000000000e+00
5.3000000000000007e+00 0.0000000000000000e+00 0.0000000000000000e+00
5.4000000000000004e+00 0.0000000000000000e+00 0.0000000000000000e+00
5.5000000000000000e+00 0.0000000000000000e+00 0.0000000000000000e+00
5.6000000000000005e+00 0.0000000000000000e+00 0.0000000000000000e+00
5.7000000000000002e+00 0.0000000000000000e+00 0.0000000000000000e+00
5.8000000000000007e+00 0.0000000000000000e+00 0.0000000000000000e+00
5.9000000000000004e+00 0.0000000000000000e+00 0.0000000000000000e+00
6.0000000000000000e+00 0.0000000000000000e+00 0.0000000000000000e+00
6.1000000000000005e+00 0.0000000000000000e+00 0.0000000000000000e+00
6.2000000000000002e+00 0.0000000000000000e+00 0.0000000000000000e+00
6.3000000000000007e+00 0.0000000000000000e+00 0.0000000000000000e+00
6.4000000000000004e+00 0.0000000000000000e+00 0.0000000000000000e+00
6.5000000000000000e+00 0.0000000000000000e+00 0.0000000000000000e+00
6.6000000000000005e+00 0.0000000000000000e+00 0.0000000000000000e+00
6.7000000000000002e+00 0.0000000000000000e+00 0.0000000000000000e+00
6.8000000000000007e+00 0.0000000000000000e+00 0.0000000000000000e+00
6.9000000000000004e+00 0.0000000000000000e+00 0.0000000000000000e+00
7.0000000000000000e+00 0.0000000000000000e+00 0.0000000000000000e+00
7.1000000000000005e+00 0.0000000000000000e+00 0.0000000000000000e+00
7.2000000000000002e+00 0.0000000000000000e+00 0.0000000000000000e+00
7.3000000000000007e+00 0.0000000000000000e+00 0.0000000000000000e+00
7.4000000000000004e+00 0.0000000000000000e+00 0.0000000000000000e+00
7.5000000000000000e+00 0.0000000000000000e+00 0.0000000000000000e+00
7.6000000000000005e+00 0.0000000000000000e+00 0.0000000000000000e+00
7.7000000000000002e+00 0.0000000000000000e+00 0.0000000000000000e+00
7.8000000000000007e+00 0.0000000000000000e+00 0.0000000000000000e+00
7.9000000000000004e+00 0.0000000000000000e+00 0.0000000000000000e+00
8.0000000000000000e+00 0.0000000000000000e+00 0.0000000000000000e+00
8.0999999999999996e+00 0.0000000000000000e+00 0.0000000000000000e+00
8.2000000000000011e+00 0.0000000000000000e+00 0.0000000000000000e+00
8.3000000000000007e+00 0.0000000000000000e+00 0.0000000000000000e+00
8.4000000000000004e+00 0.0000000000000000e+00 0.0000000000000000e+00
8.5000000000000000e+00 0.0000000000000000e+00 0.0000000000000000e+00
8.5999999999999996e+00 0.0000000000000000e+00 0.0000000000000000e+00
8.7000000000000011e+00 0.0000000000000000e+00 0.0000000000000000e+00
8.8000000000000007e+00 0.0000000000000000e+00 0.0000000000000000e+00
8.9000000000000004e+00 0.0000000000000000e+00 0.0000000000000000e+00
9.0000000000000000e+00 0.0000000000000000e+00 0.0000000000000000e+00
9.0999999999999996e+00 0.0000000000000000e+00 0.0000000000000000e+00
9.2000000000000011e+00 0.0000000000000000e+00 0.0000000000000000e+00
9.3000000000000007e+00 0.0000000000000000e+00 0.0000000000000000e+00
9.4000000000000004e+00 0.0000000000000000e+00 0.0000000000000000e+00
9.5000000000000000e+00 0.0000000000000000e+00 0.0000000000000000e+00
9.6000000000000014e+00 0.0000000000000000e+00 0.0000000000000000e+00
9.7000000000000011e+00 0.0000000000000000e+00 0.0000000000000000e+00
9.8000000000000007e+00 0.0000000000000000e+00 0.0000000000000000e+00
9.9000000000000004e+00 0.0000000000000000e+00 0.0000000000000000e+00
1.0000000000000000e+01 0.0000000000000000e+00 0.0000000000000000e+00

POINT_DATA 101

VECTORS velocity float
4.6814344586887433e+00 0.0000000000000000e+00 0.0000000000000000e+00
4.6812886381646877e+00 0.0000000000000000e+00 0.0000000000000000e+00
4.6811307730249814e+00 0.0000000000000000e+00 0.0000000000000000e+00
4.6809641821566341e+00 0.0000000000000000e+00 0.0000000000000000e+00
4.6807930275823724e+00 0.0000000000000000e+00 0.0000000000000000e+00
4.6806216629372752e+00 0.0000000000000000e+00 0.0000000000000000e+00
4.6804538538616800e+00 0.0000000000000000e+00 0.0000000000000000e+00
4.6802910815915508e+00 0.0000000000000000e+00 0.0000000000000000e+00
4.6801306732776027e+00 0.0000000000000000e+00 0.0000000000000000e+00
4.6799707487947906e+00 0.0000000000000000e+00 0.0000000000000000e+00
4.6798122267638096e+00 0.0000000000000000e+00 0.0000000000000000e+00
4.6796557363401687e+00 0.0000000000000000e+00 0.0000000000000000e+00
4.6795022790495047e+00 0.0000000000000000e+00 0.0000000000000000e+00
4.6793539108265989e+00 0.0000000000000000e+00 0.0000000000000000e+00
4.6792105807875499e+00 0.0000000000000000e+00 0.0000000000000000e+00
4.6790716816107825e+00 0.0000000000000000e+00 0.0000000000000000e+00
4.6789334931944300e+00 0.0000000000000000e+00 0.0000000000000000e+00
4.6787933401841881e+00 0.0000000000000000e+00 0.0000000000000000e+00
4.6786545936850237e+00 0.0000000000000000e+00 0.0000000000000000e+00
4.6785190880048839e+00 0.0000000000000000e+00 0.0000000000000000e+00
4.6783865392863353e+00 0.0000000000000000e+00 0.0000000000000000e+00
4.6782570327612891e+00 0.0000000000000000e+00 0.0000000000000000e+00
4.6781313467096881e+00 0.0000000000000000e+00 0.0000000000000000e+00
4.6780098353159092e+00 0.0000000000000000e+00 0.0000000000000000e+00
4.6778920503161050e+00 0.0000000000000000e+00 0.0000000000000000e+00
4.6777764974307035e+00 0.0000000000000000e+00 0.0000000000000000e+00
4.6776626022963459e+00 0.0000000000000000e+00 0.0000000000000000e+00
4.6775509713756893e+00 0.0000000000000000e+00 0.0000000000000000e+00
4.6774419377064049e+00 0.0000000000000000e+00 0.0000000000000000e+00
4.6773349728053368e+00 0.0000000000000000e+00 0.0000000000000000e+00
4.6772297249507577e+00 0.0000000000000000e+00 0.0000000000000000e+00
4.6771266571536527e+00 0.0000000000000000e+00 0.0000000000000000e+00
4.6770264302400362e+00 0.0000000000000000e+00 0.0000000000000000e+00
4.6769297800867067e+00 0.0000000000000000e+00 0.0000000000000000e+00
4.6768364124558959e+00 0.0000000000000000e+00 0.0000000000000000e+00
4.6767459713750918e+00 0.0000000000000000e+00 0.0000000000000000e+00
4.6766583419534618e+00 0.0000000000000000e+00 0.0000000000000000e+00
4.6765734111950534e+00 0.0000000000000000e+00 0.0000000000000000e+00
4.6764912596981931e+00 0.0000000000000000e+00 0.0000000000000000e+00
4.6764115106719961e+00 0.0000000000000000e+00 0.0000000000000000e+00
4.6763338977307525e+00 0.0000000000000000e+00 0.0000000000000000e+00
4.6762587648070326e+00 0.0000000000000000e+00 0.0000000000000000e+00
4.6761862204799103e+00 0.0000000000000000e+00 0.0000000000000000e+00
4.6761163191030439e+00 0.0000000000000000e+00 0.0000000000000000e+00
4.6760490882025101e+00 0.0000000000000000e+00 0.0000000000000000e+00
4.6759845412857519e+00 0.0000000000000000e+00 0.0000000000000000e+00
4.6759226849005957e+00 0.0000000000000000e+00 0.0000000000000000e+00
4.6758635215341453e+00 0.0000000000000000e+00 0.0000000000000000e+00
4.6758070527826305e+00 0.0000000000000000e+00 0.0000000000000000e+00
4.6757532793453773e+00 0.0000000000000000e+00 0.0000000000000000e+00
4.6757022006701110e+00 0.0000000000000000e+00 0.0000000000000000e+00
4.6756538170384916e+00 0.0000000000000000e+00 0.0000000000000000e+00
4.6756081277173136e+00 0.0000000000000000e+00 0.0000000000000000e+00
4.6755651317308873e+00 0.0000000000000000e+00 0.0000000000000000e+00
4.6755248287933489e+00 0.0000000000000000e+00 0.0000000000000000e+00
4.6754872186868450e+00 0.0000000000000000e+00 0.0000000000000000e+00
4.6754523005661310e+00 0.0000000000000000e+00 0.0000000000000000e+00
4.6754200737645109e+00 0.0000000000000000e+00 0.0000000000000000e+00
4.6753905381662610e+00 0.0000000000000000e+00 0.0000000000000000e+00
4.6753636930682605e+00 0.0000000000000000e+00 0.0000000000000000e+00
4.6753395375839029e+00 0.0000000000000000e+00 0.0000000000000000e+00
4.6753180714655844e+00 0.0000000000000000e+00 0.0000000000000000e+00
4.6752992943839269e+00 0.0000000000000000e+00 0.0000000000000000e+00
4.6752832054784186e+00 0.0000000000000000e+00 0.0000000000000000e+00
4.6752698041522587e+00 0.0000000000000000e+00 0.0000000000000000e+00
4.6752590898531370e+00 0.0000000000000000e+00 0.0000000000000000e+00
4.6752510619491430e+00 0.0000000000000000e+00 0.0000000000000000e+00
4.6752457199384496e+00 0.0000000000000000e+00 0.0000000000000000e+00
4.6752430632600008e+00 0.0000000000000000e+00 0.0000000000000000e+00
4.6752430912493024e+00 0.0000000000000000e+00 0.0000000000000000e+00
4.6752458033058941e+00 0.0000000000000000e+00 0.0000000000000000e+00
4.6752511989011385e+00 0.0000000000000000e+00 0.0000000000000000e+00
4.6752592774977533e+00 0.0000000000000000e+00 0.0000000000000000e+00
4.6752700384303161e+00 0.0000000000000000e+00 0.0000000000000000e+00
4.6752834810768427e+00 0.0000000000000000e+00 0.0000000000000000e+00
4.6752996047345725e+00 0.0000000000000000e+00 0.0000000000000000e+00
4.6753184087230997e+00 0.0000000000000000e+00 0.0000000000000000e+00
4.6753398924063152e+00 0.0000000000000000e+00 0.0000000000000000e+00
4.6753640551168818e+00 0.0000000000000000e+00 0.0000000000000000e+00
4.6753908964070297e+00 0.0000000000000000e+00 0.0000000000000000e+00
4.6754204157489081e+00 0.0000000000000000e+00 0.0000000000000000e+00
4.6754526125084981e+00 0.0000000000000000e+00 0.0000000000000000e+00
4.6754874859302733e+00 0.0000000000000000e+00 0.0000000000000000e+00
4.6755250350487811e+00 0.0000000000000000e+00 0.0000000000000000e+00
4.6755652594001820e+00 0.0000000000000000e+00 0.0000000000000000e+00
4.6756081587726701e+00 0.0000000000000000e+00 0.0000000000000000e+00
4.6756537328993586e+00 0.0000000000000000e+00 0.0000000000000000e+00
4.6757019802534776e+00 0.0000000000000000e+00 0.0000000000000000e+00
4.6757528996947189e+00 0.0000000000000000e+00 0.0000000000000000e+00
4.6758064904299319e+00 0.0000000000000000e+00 0.0000000000000000e+00
4.6758627526431402e+00 0.0000000000000000e+00 0.0000000000000000e+00
4.6759216877123784e+00 0.0000000000000000e+00 0.0000000000000000e+00
4.6759832909976540e+00 0.0000000000000000e+00 0.0000000000000000e+00
4.6760475690065624e+00 0.0000000000000000e+00 0.0000000000000000e+00
4.6761145029041478e+00 0.0000000000000000e+00 0.0000000000000000e+00
4.6761841348981106e+00 0.0000000000000000e+00 0.0000000000000000e+00
4.6762563594399671e+00 0.0000000000000000e+00 0.0000000000000000e+00
4.6763314325582908e+00 0.0000000000000000e+00 0.0000000000000000e+00
4.6764087244829424e+00 0.0000000000000000e+00 0.0000000000000000e+00
4.6764897722828120e+00 0.0000000000000000e+00 0.0000000000000000e+00
4.6765708200826817e+00 0.0000000000000000e+00 0.0000000000000000e+00


SCALARS pressure float
LOOKUP_TABLE default
2.0676748464272830e+01
2.0474219838654275e+01
2.0271691213035719e+01
2.0069117868232595e+01
1.9866481712406728e+01
1.9663764629008483e+01
1.9460947200612864e+01
1.9258011829640036e+01
1.9054950520846251e+01
1.8851773476562435e+01
1.8648490067607828e+01
1.8445098426095303e+01
1.8241596305635422e+01
1.8037979806468663e+01
1.7834240738744498e+01
1.7630379035850396e+01
1.7426398026625161e+01
1.7222314531131744e+01
1.7018143152057799e+01
1.6813873418822386e+01
1.6609497047328787e+01
1.6405014678463850e+01
1.6200426874326240e+01
1.5995731462482775e+01
1.5790927586455613e+01
1.5586017482507680e+01
1.5381008062529926e+01
1.5175903644054186e+01
1.4970703342625386e+01
1.4765406552557407e+01
1.4560016196936285e+01
1.4354534963860619e+01
1.4148962260428666e+01
1.3943296150940752e+01
1.3737534205758305e+01
1.3531678056642299e+01
1.3325730182456265e+01
1.3119692231837027e+01
1.2913565731741183e+01
1.2707351423883429e+01
1.2501051763663435e+01
1.2294668905450807e+01
1.2088202571544599e+01
1.1881653073535178e+01
1.1675021025899106e+01
1.1468307193921007e+01
1.1261512420542241e+01
1.1054637587718876e+01
1.0847683599397241e+01
1.0640651366464065e+01
1.0433541804840774e+01
1.0226355836597497e+01
1.0019094381805763e+01
9.8117583648615216e+00
9.6043487122503439e+00
9.3968663484722050e+00
9.1893121979594401e+00
8.9816871881184319e+00
8.7739922465310514e+00
8.5662282990896923e+00
8.3583962742796452e+00
8.1504971021640156e+00
7.9425317108382263e+00
7.7345010288251013e+00
7.5264059872740088e+00
7.3182475170662391e+00
7.1100265492769745e+00
6.9017440157075143e+00
6.6934008481270180e+00
6.4849979789109735e+00
6.2765363412967989e+00
6.0680168687290008e+00
5.8594404947149776e+00
5.6508081531104413e+00
5.4421207786692651e+00
5.2333793064003560e+00
5.0245846719914562e+00
4.8157378114601963e+00
4.6068396609605973e+00
4.3978911570596972e+00
4.1888932357435573e+00
3.9798468334532084e+00
3.7707528873534772e+00
3.5616123354370841e+00
3.3524261170293124e+00
3.1431951697705474e+00
2.9339204300332367e+00
2.7246028343917739e+00
2.5152433249924666e+00
2.3058428433383327e+00
2.0964023298106254e+00
1.8869227204834871e+00
1.6774049464005190e+00
1.4678499614197698e+00
1.2582586801438567e+00
1.0486321086219845e+00
8.3897103283916141e-01
6.2927677095706114e-01
4.1954934015063261e-01
2.0979194090533751e-01
0.0000000000000000e+00


SCALARS diameter float
LOOKUP_TABLE default
1.0018723329222476e+00
1.0018509477178492e+00
1.0018306705115148e+00
1.0018122611761506e+00
1.0017949313154424e+00
1.0017775897657202e+00
1.0017595075996915e+00
1.0017404087930730e+00
1.0017213894796639e+00
1.0017033585684723e+00
1.0016855868801213e+00
1.0016678009773914e+00
1.0016499001206387e+00
1.0016312372801619e+00
1.0016117639733408e+00
1.0015921301527093e+00
1.0015728041688199e+00
1.0015554732398708e+00
1.0015380666438032e+00
1.0015200560921342e+00
1.0015018613461355e+00
1.0014836751789078e+00
1.0014651098709919e+00
1.0014461282273008e+00
1.0014268621866718e+00
1.0014078024528981e+00
1.0013892577593284e+00
1.0013706799852642e+00
1.0013520945857897e+00
1.0013335352213373e+00
1.0013153717885506e+00
1.0012971898340652e+00
1.0012789628533203e+00
1.0012603379703733e+00
1.0012415507387202e+00
1.0012227550770672e+00
1.0012039497286382e+00
1.0011851341512277e+00
1.0011663085550302e+00
1.0011474882965263e+00
1.0011289016802991e+00
1.0011103028530541e+00
1.0010916922343878e+00
1.0010730706244035e+00
1.0010544383083293e+00
1.0010357955471896e+00
1.0010171426404451e+00
1.0009984798314397e+00
1.0009798074678227e+00
1.0009611252436197e+00
1.0009424338632624e+00
1.0009237331574303e+00
1.0009050233890935e+00
1.0008863050340693e+00
1.0008675781155267e+00
1.0008488427046660e+00
1.0008300990576988e+00
1.0008113475271849e+00
1.0007925880420789e+00
1.0007738208437615e+00
1.0007550462842500e+00
1.0007362644362383e+00
1.0007174753252084e+00
1.0006986793124635e+00
1.0006798765982705e+00
1.0006610673012251e+00
1.0006422516546805e+00
1.0006234297981245e+00
1.0006046019012560e+00
1.0005857681751800e+00
1.0005669288113987e+00
1.0005480839518399e+00
1.0005292337659135e+00
1.0005103784445577e+00
1.0004915182037548e+00
1.0004726531997539e+00
1.0004537836874816e+00
1.0004349097755469e+00
1.0004160317096560e+00
1.0003971495731172e+00
1.0003782635214897e+00
1.0003593737396068e+00
1.0003404804515503e+00
1.0003215839123012e+00
1.0003026843006348e+00
1.0002837815103851e+00
1.0002648757653239e+00
1.0002459673165700e+00
1.0002270568642635e+00
1.0002081441117219e+00
1.0001892294542358e+00
1.0001703119299428e+00
1.0001513929816488e+00
1.0001324722074294e+00
1.0001135502777827e+00
1.0000946271363542e+00
1.0000757029912060e+00
1.0000567779980098e+00
1.0000378524746141e+00
1.0000189265926545e+00
9.9999999975910225e-01


SCALARS iters float
LOOKUP_TABLE default
3.0000000000000000e+00
3.0000000000000000e+00
3.0000000000000000e+00
3.0000000000000000e+00
3.0000000000000000e+00
3.0000000000000000e+00
3.0000000000000000e+00
3.0000000000000000e+00
3.0000000000000000e+00
3.0000000000000000e+00
3.0000000000000000e+00
3.0000000000000000e+00
3.0000000000000000e+00
3.0000000000000000e+00
3.0000000000000000e+00
3.0000000000000000e+00
3.0000000000000000e+00
3.0000000000000000e+00
3.0000000000000000e+00
3.0000000000000000e+00
3.0000000000000000e+00
3.0000000000000000e+00
3.0000000000000000e+00
3.0000000000000000e+00
3.0000000000000000e+00
3.0000000000000000e+00
3.0000000000000000e+00
3.0000000000000000e+00
3.0000000000000000e+00
3.0000000000000000e+00
3.0000000000000000e+00
3.0000000000000000e+00
3.0000000000000000e+00
3.0000000000000000e+00
3.0000000000000000e+00
3.0000000000000000e+00
3.0000000000000000e+00
3.0000000000000000e+00
3.0000000000000000e+00
3.0000000000000000e+00
3.0000000000000000e+00
3.0000000000000000e+00
3.0000000000000000e+00
3.0000000000000000e+00
3.0000000000000000e+00
3.0000000000000000e+00
3.0000000000000000e+00
3.0000000000000000e+00
3.0000000000000000e+00
3.0000000000000000e+00
3.0000000000000000e+00
3.0000000000000000e+00
3.0000000000000000e+00
3.0000000000000000e+00
3.0000000000000000e+00
3.0000000000000000e+00
3.0000000000000000e+00
3.0000000000000000e+00
3.0000000000000000e+00
3.0000000000000000e+00
3.0000000000000000e+00
3.0000000000000000e+00
3.0000000000000000e+00
3.0000000000000000e+00
3.0000000000000000e+00
3.0000000000000000e+00
3.0000000000000000e+00
3.0000000000000000e+00
3.0000000000000000e+00
3.0000000000000000e+00
3.0000000000000000e+00
3.0000000000000000e+00
3.0000000000000000e+00
3.0000000000000000e+00
3.0000000000000000e+00
3.0000000000000000e+00
3.0000000000000000e+00
3.0000000000000000e+00
3.0000000000000000e+00
3.0000000000000000e+00
3.0000000000000000e+00
3.0000000000000000e+00
3.0000000000000000e+00
3.0000000000000000e+00
3.0000000000000000e+00
3.0000000000000000e+00
3.0000000000000000e+00
3.0000000000000000e+00
3.0000000000000000e+00
3.0000000000000000e+00
3.0000000000000000e+00
3.0000000000000000e+00
3.0000000000000000e+00
3.0000000000000000e+00
3.0000000000000000e+00
3.0000000000000000e+00
3.0000000000000000e+00
3.0000000000000000e+00
3.0000000000000000e+00
3.0000000000000000e+00
3.0000000000000000e+00


