# vtk DataFile Version 2.0

ASCII

DATASET UNSTRUCTURED_GRID

POINTS 101 float

0.0000000000000000e+00 0.0000000000000000e+00 0.0000000000000000e+00
1.0000000000000001e-01 0.0000000000000000e+00 0.0000000000000000e+00
2.0000000000000001e-01 0.0000000000000000e+00 0.0000000000000000e+00
3.0000000000000004e-01 0.0000000000000000e+00 0.0000000000000000e+00
4.0000000000000002e-01 0.0000000000000000e+00 0.0000000000000000e+00
5.0000000000000000e-01 0.0000000000000000e+00 0.0000000000000000e+00
6.0000000000000009e-01 0.0000000000000000e+00 0.0000000000000000e+00
7.0000000000000007e-01 0.0000000000000000e+00 0.0000000000000000e+00
8.0000000000000004e-01 0.0000000000000000e+00 0.0000000000000000e+00
9.0000000000000002e-01 0.0000000000000000e+00 0.0000000000000000e+00
1.0000000000000000e+00 0.0000000000000000e+00 0.0000000000000000e+00
1.1000000000000001e+00 0.0000000000000000e+00 0.0000000000000000e+00
1.2000000000000002e+00 0.0000000000000000e+00 0.0000000000000000e+00
1.3000000000000000e+00 0.0000000000000000e+00 0.0000000000000000e+00
1.4000000000000001e+00 0.0000000000000000e+00 0.0000000000000000e+00
1.5000000000000000e+00 0.0000000000000000e+00 0.0000000000000000e+00
1.6000000000000001e+00 0.0000000000000000e+00 0.0000000000000000e+00
1.7000000000000002e+00 0.0000000000000000e+00 0.0000000000000000e+00
1.8000000000000000e+00 0.0000000000000000e+00 0.0000000000000000e+00
1.9000000000000001e+00 0.0000000000000000e+00 0.0000000000000000e+00
2.0000000000000000e+00 0.0000000000000000e+00 0.0000000000000000e+00
2.1000000000000001e+00 0.0000000000000000e+00 0.0000000000000000e+00
2.2000000000000002e+00 0.0000000000000000e+00 0.0000000000000000e+00
2.3000000000000003e+00 0.0000000000000000e+00 0.0000000000000000e+00
2.4000000000000004e+00 0.0000000000000000e+00 0.0000000000000000e+00
2.5000000000000000e+00 0.0000000000000000e+00 0.0000000000000000e+00
2.6000000000000001e+00 0.0000000000000000e+00 0.0000000000000000e+00
2.7000000000000002e+00 0.0000000000000000e+00 0.0000000000000000e+00
2.8000000000000003e+00 0.0000000000000000e+00 0.0000000000000000e+00
2.9000000000000004e+00 0.0000000000000000e+00 0.0000000000000000e+00
3.0000000000000000e+00 0.0000000000000000e+00 0.0000000000000000e+00
3.1000000000000001e+00 0.0000000000000000e+00 0.0000000000000000e+00
3.2000000000000002e+00 0.0000000000000000e+00 0.0000000000000000e+00
3.3000000000000003e+00 0.0000000000000000e+00 0.0000000000000000e+00
3.4000000000000004e+00 0.0000000000000000e+00 0.0000000000000000e+00
3.5000000000000000e+00 0.0000000000000000e+00 0.0000000000000000e+00
3.6000000000000001e+00 0.0000000000000000e+00 0.0000000000000000e+00
3.7000000000000002e+00 0.0000000000000000e+00 0.0000000000000000e+00
3.8000000000000003e+00 0.0000000000000000e+00 0.0000000000000000e+00
3.9000000000000004e+00 0.0000000000000000e+00 0.0000000000000000e+00
4.0000000000000000e+00 0.0000000000000000e+00 0.0000000000000000e+00
4.1000000000000005e+00 0.0000000000000000e+00 0.0000000000000000e+00
4.2000000000000002e+00 0.0000000000000000e+00 0.0000000000000000e+00
4.2999999999999998e+00 0.0000000000000000e+00 0.0000000000000000e+00
4.4000000000000004e+00 0.0000000000000000e+00 0.0000000000000000e+00
4.5000000000000000e+00 0.0000000000000000e+00 0.0000000000000000e+00
4.6000000000000005e+00 0.0000000000000000e+00 0.0000000000000000e+00
4.7000000000000002e+00 0.0000000000000000e+00 0.0000000000000000e+00
4.8000000000000007e+00 0.0000000000000000e+00 0.0000000000000000e+00
4.9000000000000004e+00 0.0000000000000000e+00 0.0000000000000000e+00
5.0000000000000000e+00 0.0000000000000000e+00 0.0000000000000000e+00
5.1000000000000005e+00 0.0000000000000000e+00 0.0000000000000000e+00
5.2000000000000002e+00 0.0000000000000000e+00 0.0000000000000000e+00
5.3000000000000007e+00 0.0000000000000000e+00 0.0000000000000000e+00
5.4000000000000004e+00 0.0000000000000000e+00 0.0000000000000000e+00
5.5000000000000000e+00 0.0000000000000000e+00 0.0000000000000000e+00
5.6000000000000005e+00 0.0000000000000000e+00 0.0000000000000000e+00
5.7000000000000002e+00 0.0000000000000000e+00 0.0000000000000000e+00
5.8000000000000007e+00 0.0000000000000000e+00 0.0000000000000000e+00
5.9000000000000004e+00 0.0000000000000000e+00 0.0000000000000000e+00
6.0000000000000000e+00 0.0000000000000000e+00 0.0000000000000000e+00
6.1000000000000005e+00 0.0000000000000000e+00 0.0000000000000000e+00
6.2000000000000002e+00 0.0000000000000000e+00 0.0000000000000000e+00
6.3000000000000007e+00 0.0000000000000000e+00 0.0000000000000000e+00
6.4000000000000004e+00 0.0000000000000000e+00 0.0000000000000000e+00
6.5000000000000000e+00 0.0000000000000000e+00 0.0000000000000000e+00
6.6000000000000005e+00 0.0000000000000000e+00 0.0000000000000000e+00
6.7000000000000002e+00 0.0000000000000000e+00 0.0000000000000000e+00
6.8000000000000007e+00 0.0000000000000000e+00 0.0000000000000000e+00
6.9000000000000004e+00 0.0000000000000000e+00 0.0000000000000000e+00
7.0000000000000000e+00 0.0000000000000000e+00 0.0000000000000000e+00
7.1000000000000005e+00 0.0000000000000000e+00 0.0000000000000000e+00
7.2000000000000002e+00 0.0000000000000000e+00 0.0000000000000000e+00
7.3000000000000007e+00 0.0000000000000000e+00 0.0000000000000000e+00
7.4000000000000004e+00 0.0000000000000000e+00 0.0000000000000000e+00
7.5000000000000000e+00 0.0000000000000000e+00 0.0000000000000000e+00
7.6000000000000005e+00 0.0000000000000000e+00 0.0000000000000000e+00
7.7000000000000002e+00 0.0000000000000000e+00 0.0000000000000000e+00
7.8000000000000007e+00 0.0000000000000000e+00 0.0000000000000000e+00
7.9000000000000004e+00 0.0000000000000000e+00 0.0000000000000000e+00
8.0000000000000000e+00 0.0000000000000000e+00 0.0000000000000000e+00
8.0999999999999996e+00 0.0000000000000000e+00 0.0000000000000000e+00
8.2000000000000011e+00 0.0000000000000000e+00 0.0000000000000000e+00
8.3000000000000007e+00 0.0000000000000000e+00 0.0000000000000000e+00
8.4000000000000004e+00 0.0000000000000000e+00 0.0000000000000000e+00
8.5000000000000000e+00 0.0000000000000000e+00 0.0000000000000000e+00
8.5999999999999996e+00 0.0000000000000000e+00 0.0000000000000000e+00
8.7000000000000011e+00 0.0000000000000000e+00 0.0000000000000000e+00
8.8000000000000007e+00 0.0000000000000000e+00 0.0000000000000000e+00
8.9000000000000004e+00 0.0000000000000000e+00 0.0000000000000000e+00
9.0000000000000000e+00 0.0000000000000000e+00 0.0000000000000000e+00
9.0999999999999996e+00 0.0000000000000000e+00 0.0000000000000000e+00
9.2000000000000011e+00 0.0000000000000000e+00 0.0000000000000000e+00
9.3000000000000007e+00 0.0000000000000000e+00 0.0000000000000000e+00
9.4000000000000004e+00 0.0000000000000000e+00 0.0000000000000000e+00
9.5000000000000000e+00 0.0000000000000000e+00 0.0000000000000000e+00
9.6000000000000014e+00 0.0000000000000000e+00 0.0000000000000000e+00
9.7000000000000011e+00 0.0000000000000000e+00 0.0000000000000000e+00
9.8000000000000007e+00 0.0000000000000000e+00 0.0000000000000000e+00
9.9000000000000004e+00 0.0000000000000000e+00 0.0000000000000000e+00
1.0000000000000000e+01 0.0000000000000000e+00 0.0000000000000000e+00

POINT_DATA 101

VECTORS velocity float
3.5669874520293812e+00 0.0000000000000000e+00 0.0000000000000000e+00
3.5671011958940451e+00 0.0000000000000000e+00 0.0000000000000000e+00
3.5671652110421377e+00 0.0000000000000000e+00 0.0000000000000000e+00
3.5672033537773729e+00 0.0000000000000000e+00 0.0000000000000000e+00
3.5672290690923893e+00 0.0000000000000000e+00 0.0000000000000000e+00
3.5672497463234381e+00 0.0000000000000000e+00 0.0000000000000000e+00
3.5672695564311301e+00 0.0000000000000000e+00 0.0000000000000000e+00
3.5672921913863020e+00 0.0000000000000000e+00 0.0000000000000000e+00
3.5673166962617215e+00 0.0000000000000000e+00 0.0000000000000000e+00
3.5673406500205584e+00 0.0000000000000000e+00 0.0000000000000000e+00
3.5673644705040584e+00 0.0000000000000000e+00 0.0000000000000000e+00
3.5673886764908178e+00 0.0000000000000000e+00 0.0000000000000000e+00
3.5674137671310033e+00 0.0000000000000000e+00 0.0000000000000000e+00
3.5674414083737864e+00 0.0000000000000000e+00 0.0000000000000000e+00
3.5674719588074844e+00 0.0000000000000000e+00 0.0000000000000000e+00
3.5675052515366605e+00 0.0000000000000000e+00 0.0000000000000000e+00
3.5675388188791053e+00 0.0000000000000000e+00 0.0000000000000000e+00
3.5675701606783892e+00 0.0000000000000000e+00 0.0000000000000000e+00
3.5676008658664160e+00 0.0000000000000000e+00 0.0000000000000000e+00
3.5676321975644631e+00 0.0000000000000000e+00 0.0000000000000000e+00
3.5676645164532683e+00 0.0000000000000000e+00 0.0000000000000000e+00
3.5676984105351215e+00 0.0000000000000000e+00 0.0000000000000000e+00
3.5677348854539450e+00 0.0000000000000000e+00 0.0000000000000000e+00
3.5677742818419107e+00 0.0000000000000000e+00 0.0000000000000000e+00
3.5678134969983462e+00 0.0000000000000000e+00 0.0000000000000000e+00
3.5678519687915791e+00 0.0000000000000000e+00 0.0000000000000000e+00
3.5678914113816589e+00 0.0000000000000000e+00 0.0000000000000000e+00
3.5679317543512199e+00 0.0000000000000000e+00 0.0000000000000000e+00
3.5679730183139355e+00 0.0000000000000000e+00 0.0000000000000000e+00
3.5680147051486935e+00 0.0000000000000000e+00 0.0000000000000000e+00
3.5680564154920846e+00 0.0000000000000000e+00 0.0000000000000000e+00
3.5680984958247230e+00 0.0000000000000000e+00 0.0000000000000000e+00
3.5681413467064362e+00 0.0000000000000000e+00 0.0000000000000000e+00
3.5681854646516373e+00 0.0000000000000000e+00 0.0000000000000000e+00
3.5682307092412904e+00 0.0000000000000000e+00 0.0000000000000000e+00
3.5682768196351833e+00 0.0000000000000000e+00 0.0000000000000000e+00
3.5683237004373987e+00 0.0000000000000000e+00 0.0000000000000000e+00
3.5683712871530728e+00 0.0000000000000000e+00 0.0000000000000000e+00
3.5684196011825740e+00 0.0000000000000000e+00 0.0000000000000000e+00
3.5684685108457179e+00 0.0000000000000000e+00 0.0000000000000000e+00
3.5685179559014917e+00 0.0000000000000000e+00 0.0000000000000000e+00
3.5685680579866581e+00 0.0000000000000000e+00 0.0000000000000000e+00
3.5686188663395937e+00 0.0000000000000000e+00 0.0000000000000000e+00
3.5686703981543344e+00 0.0000000000000000e+00 0.0000000000000000e+00
3.5687226574502948e+00 0.0000000000000000e+00 0.0000000000000000e+00
3.5687756424563961e+00 0.0000000000000000e+00 0.0000000000000000e+00
3.5688293490363527e+00 0.0000000000000000e+00 0.0000000000000000e+00
3.5688837713709267e+00 0.0000000000000000e+00 0.0000000000000000e+00
3.5689389041086406e+00 0.0000000000000000e+00 0.0000000000000000e+00
3.5689947418937491e+00 0.0000000000000000e+00 0.0000000000000000e+00
3.5690512785934954e+00 0.0000000000000000e+00 0.0000000000000000e+00
3.5691085090909245e+00 0.0000000000000000e+00 0.0000000000000000e+00
3.5691664276141850e+00 0.0000000000000000e+00 0.0000000000000000e+00
3.5692250281244022e+00 0.0000000000000000e+00 0.0000000000000000e+00
3.5692843053240457e+00 0.0000000000000000e+00 0.0000000000000000e+00
3.5693442543300620e+00 0.0000000000000000e+00 0.0000000000000000e+00
3.5694048696761644e+00 0.0000000000000000e+00 0.0000000000000000e+00
3.5694661459666173e+00 0.0000000000000000e+00 0.0000000000000000e+00
3.5695280784127839e+00 0.0000000000000000e+00 0.0000000000000000e+00
3.5695906619219264e+00 0.0000000000000000e+00 0.0000000000000000e+00
3.5696538912270754e+00 0.0000000000000000e+00 0.0000000000000000e+00
3.5697177615466322e+00 0.0000000000000000e+00 0.0000000000000000e+00
3.5697822682171343e+00 0.0000000000000000e+00 0.0000000000000000e+00
3.5698474063081056e+00 0.0000000000000000e+00 0.0000000000000000e+00
3.5699131711144938e+00 0.0000000000000000e+00 0.0000000000000000e+00
3.5699795580574825e+00 0.0000000000000000e+00 0.0000000000000000e+00
3.5700465625558735e+00 0.0000000000000000e+00 0.0000000000000000e+00
3.5701141802009868e+00 0.0000000000000000e+00 0.0000000000000000e+00
3.5701824066154528e+00 0.0000000000000000e+00 0.0000000000000000e+00
3.5702512373981832e+00 0.0000000000000000e+00 0.0000000000000000e+00
3.5703206682886677e+00 0.0000000000000000e+00 0.0000000000000000e+00
3.5703906951375513e+00 0.0000000000000000e+00 0.0000000000000000e+00
3.5704613138825674e+00 0.0000000000000000e+00 0.0000000000000000e+00
3.5705325204130078e+00 0.0000000000000000e+00 0.0000000000000000e+00
3.5706043106897014e+00 0.0000000000000000e+00 0.0000000000000000e+00
3.5706766807815926e+00 0.0000000000000000e+00 0.0000000000000000e+00
3.5707496267549712e+00 0.0000000000000000e+00 0.0000000000000000e+00
3.5708231449165000e+00 0.0000000000000000e+00 0.0000000000000000e+00
3.5708972314083725e+00 0.0000000000000000e+00 0.0000000000000000e+00
3.5709718826942249e+00 0.0000000000000000e+00 0.0000000000000000e+00
3.5710470954145754e+00 0.0000000000000000e+00 0.0000000000000000e+00
3.5711228660942775e+00 0.0000000000000000e+00 0.0000000000000000e+00
3.5711991911893097e+00 0.0000000000000000e+00 0.0000000000000000e+00
3.5712760670943551e+00 0.0000000000000000e+00 0.0000000000000000e+00
3.5713534908123710e+00 0.0000000000000000e+00 0.0000000000000000e+00
3.5714314593253613e+00 0.0000000000000000e+00 0.0000000000000000e+00
3.5715099698477890e+00 0.0000000000000000e+00 0.0000000000000000e+00
3.5715890193409932e+00 0.0000000000000000e+00 0.0000000000000000e+00
3.5716686038440288e+00 0.0000000000000000e+00 0.0000000000000000e+00
3.5717487205015868e+00 0.0000000000000000e+00 0.0000000000000000e+00
3.5718293659357059e+00 0.0000000000000000e+00 0.0000000000000000e+00
3.5719105409475427e+00 0.0000000000000000e+00 0.0000000000000000e+00
3.5719922372440913e+00 0.0000000000000000e+00 0.0000000000000000e+00
3.5720744629863916e+00 0.0000000000000000e+00 0.0000000000000000e+00
3.5721571915186625e+00 0.0000000000000000e+00 0.0000000000000000e+00
3.5722404692730119e+00 0.0000000000000000e+00 0.0000000000000000e+00
3.5723241945924702e+00 0.0000000000000000e+00 0.0000000000000000e+00
3.5724085599849174e+00 0.0000000000000000e+00 0.0000000000000000e+00
3.5724931995173401e+00 0.0000000000000000e+00 0.0000000000000000e+00
3.5725787322367224e+00 0.0000000000000000e+00 0.0000000000000000e+00
3.5726642649561047e+00 0.0000000000000000e+00 0.0000000000000000e+00


SCALARS pressure float
LOOKUP_TABLE default
2.6549012568511461e+01
2.6296588500106107e+01
2.6044164431700757e+01
2.5791534538988472e+01
2.5538612711048991e+01
2.5285354108593001e+01
2.5031735970662467e+01
2.4777746120794252e+01
2.4523374547483229e+01
2.4268628032279505e+01
2.4013517905779800e+01
2.3758045992313949e+01
2.3502213964443957e+01
2.3246023340109797e+01
2.2989470792379944e+01
2.2732557686460691e+01
2.2475287754845315e+01
2.2217673581238127e+01
2.1959727724461963e+01
2.1701448167158276e+01
2.1442833616246091e+01
2.1183886059004085e+01
2.0924607214203473e+01
2.0664997738480292e+01
2.0405060706006346e+01
2.0144809743292701e+01
1.9884248450917536e+01
1.9623375183894421e+01
1.9362193996641700e+01
1.9100708534719651e+01
1.8838924357290832e+01
1.8576846708428814e+01
1.8314478210939107e+01
1.8051821207030191e+01
1.7788877570062546e+01
1.7525651385658836e+01
1.7262147220638226e+01
1.6998369095608993e+01
1.6734320920291776e+01
1.6470006344001664e+01
1.6205429492951517e+01
1.5940594229213561e+01
1.5675503903586145e+01
1.5410162164897008e+01
1.5144572803853197e+01
1.4878739674900332e+01
1.4612666665383859e+01
1.4346357681876798e+01
1.4079816647586100e+01
1.3813047494232945e+01
1.3546054163474517e+01
1.3278840609118387e+01
1.3011410790877735e+01
1.2743768680179729e+01
1.2475918258552742e+01
1.2207863513930059e+01
1.1939608441706389e+01
1.1671157048067219e+01
1.1402513347275590e+01
1.1133681359981376e+01
1.0864665116162913e+01
1.0595468654494949e+01
1.0326096019855106e+01
1.0056551264474400e+01
9.7868384490573952e+00
9.5169616409234372e+00
9.2469249142455006e+00
8.9767323503025125e+00
8.7063880367327027e+00
8.4358960678671266e+00
8.1652605447584179e+00
7.8944855744497140e+00
7.6235752699448174e+00
7.3525337501244721e+00
7.0813651400829087e+00
6.8100735704944269e+00
6.5386631773452617e+00
6.2671381021413142e+00
5.9955024908897059e+00
5.7237604954386088e+00
5.4519162716478755e+00
5.1799739796381132e+00
4.9079377844554726e+00
4.6358118560819088e+00
4.3636003692259751e+00
4.0913075008172735e+00
3.8189374315913969e+00
3.5464943449281550e+00
3.2739824296434064e+00
3.0014058819809519e+00
2.7287688978261415e+00
2.4560756766628509e+00
2.1833304083298768e+00
1.9105373125903613e+00
1.6377005680252601e+00
1.3648244453900238e+00
1.0919130392743455e+00
8.1897078025748660e-01
5.4600151222860216e-01
2.7300998666838527e-01
0.0000000000000000e+00


SCALARS diameter float
LOOKUP_TABLE default
1.0024010877419058e+00
1.0023742341428650e+00
1.0023493690690004e+00
1.0023270539025997e+00
1.0023059731705908e+00
1.0022848187038127e+00
1.0022633973520474e+00
1.0022407372732560e+00
1.0022171617016555e+00
1.0021945295377350e+00
1.0021721044336425e+00
1.0021496077296628e+00
1.0021269976871245e+00
1.0021036927490592e+00
1.0020795058757592e+00
1.0020550507337764e+00
1.0020305951325859e+00
1.0020078689568390e+00
1.0019853675083905e+00
1.0019626882723489e+00
1.0019398749427748e+00
1.0019168712279902e+00
1.0018931079646851e+00
1.0018685133879028e+00
1.0018440181701809e+00
1.0018208342734527e+00
1.0017971822810421e+00
1.0017734462965673e+00
1.0017496932820948e+00
1.0017259546098327e+00
1.0017025974091611e+00
1.0016792071674543e+00
1.0016557746474746e+00
1.0016320216094514e+00
1.0016081132180294e+00
1.0015841861464347e+00
1.0015602385240077e+00
1.0015362695839691e+00
1.0015122795505016e+00
1.0014882744992830e+00
1.0014643388651048e+00
1.0014403798264280e+00
1.0014163975865571e+00
1.0013923933945930e+00
1.0013683677476510e+00
1.0013443210317095e+00
1.0013202536805261e+00
1.0012961662409436e+00
1.0012720592322168e+00
1.0012479324429129e+00
1.0012237867996148e+00
1.0011996222987032e+00
1.0011754393313028e+00
1.0011512386417534e+00
1.0011270204228286e+00
1.0011027848476080e+00
1.0010785322773552e+00
1.0010542633264574e+00
1.0010299780892382e+00
1.0010056769464015e+00
1.0009813604152982e+00
1.0009570287928207e+00
1.0009326822864244e+00
1.0009083213624335e+00
1.0008839463985630e+00
1.0008595576723245e+00
1.0008351555902792e+00
1.0008107404569500e+00
1.0007863126158287e+00
1.0007618724441001e+00
1.0007374203114985e+00
1.0007129565156343e+00
1.0006884814144719e+00
1.0006639953375591e+00
1.0006394987077698e+00
1.0006149918200133e+00
1.0005904750872454e+00
1.0005659488288672e+00
1.0005414133894863e+00
1.0005168692212025e+00
1.0004923163874919e+00
1.0004677553961523e+00
1.0004431865541714e+00
1.0004186103808970e+00
1.0003940271029914e+00
1.0003694368220732e+00
1.0003448400691617e+00
1.0003202368975905e+00
1.0002956283959681e+00
1.0002710144688483e+00
1.0002463957986263e+00
1.0002217715940427e+00
1.0001971430845427e+00
1.0001725103601420e+00
1.0001478741720995e+00
1.0001232347253608e+00
1.0000985923065220e+00
1.0000739472616351e+00
1.0000493001184423e+00
1.0000246513414925e+00
1.0000000001029219e+00


SCALARS iters float
LOOKUP_TABLE default
4.0000000000000000e+00
4.0000000000000000e+00
4.0000000000000000e+00
4.0000000000000000e+00
4.0000000000000000e+00
4.0000000000000000e+00
4.0000000000000000e+00
4.0000000000000000e+00
4.0000000000000000e+00
4.0000000000000000e+00
4.0000000000000000e+00
4.0000000000000000e+00
4.0000000000000000e+00
4.0000000000000000e+00
4.0000000000000000e+00
4.0000000000000000e+00
4.0000000000000000e+00
4.0000000000000000e+00
4.0000000000000000e+00
4.0000000000000000e+00
4.0000000000000000e+00
4.0000000000000000e+00
4.0000000000000000e+00
4.0000000000000000e+00
4.0000000000000000e+00
4.0000000000000000e+00
4.0000000000000000e+00
4.0000000000000000e+00
4.0000000000000000e+00
4.0000000000000000e+00
4.0000000000000000e+00
4.0000000000000000e+00
4.0000000000000000e+00
4.0000000000000000e+00
4.0000000000000000e+00
4.0000000000000000e+00
4.0000000000000000e+00
4.0000000000000000e+00
4.0000000000000000e+00
4.0000000000000000e+00
4.0000000000000000e+00
4.0000000000000000e+00
4.0000000000000000e+00
4.0000000000000000e+00
4.0000000000000000e+00
4.0000000000000000e+00
4.0000000000000000e+00
4.0000000000000000e+00
4.0000000000000000e+00
4.0000000000000000e+00
4.0000000000000000e+00
4.0000000000000000e+00
4.0000000000000000e+00
4.0000000000000000e+00
4.0000000000000000e+00
4.0000000000000000e+00
4.0000000000000000e+00
4.0000000000000000e+00
4.0000000000000000e+00
4.0000000000000000e+00
4.0000000000000000e+00
4.0000000000000000e+00
4.0000000000000000e+00
4.0000000000000000e+00
4.0000000000000000e+00
4.0000000000000000e+00
4.0000000000000000e+00
4.0000000000000000e+00
4.0000000000000000e+00
4.0000000000000000e+00
4.0000000000000000e+00
4.0000000000000000e+00
4.0000000000000000e+00
4.0000000000000000e+00
4.0000000000000000e+00
4.0000000000000000e+00
4.0000000000000000e+00
4.0000000000000000e+00
4.0000000000000000e+00
4.0000000000000000e+00
4.0000000000000000e+00
4.0000000000000000e+00
4.0000000000000000e+00
4.0000000000000000e+00
4.0000000000000000e+00
4.0000000000000000e+00
4.0000000000000000e+00
4.0000000000000000e+00
4.0000000000000000e+00
4.0000000000000000e+00
4.0000000000000000e+00
4.0000000000000000e+00
4.0000000000000000e+00
4.0000000000000000e+00
4.0000000000000000e+00
4.0000000000000000e+00
4.0000000000000000e+00
4.0000000000000000e+00
4.0000000000000000e+00
4.0000000000000000e+00
4.0000000000000000e+00


