# vtk DataFile Version 2.0

ASCII

DATASET UNSTRUCTURED_GRID

POINTS 101 float

0.0000000000000000e+00 0.0000000000000000e+00 0.0000000000000000e+00
1.0000000000000001e-01 0.0000000000000000e+00 0.0000000000000000e+00
2.0000000000000001e-01 0.0000000000000000e+00 0.0000000000000000e+00
3.0000000000000004e-01 0.0000000000000000e+00 0.0000000000000000e+00
4.0000000000000002e-01 0.0000000000000000e+00 0.0000000000000000e+00
5.0000000000000000e-01 0.0000000000000000e+00 0.0000000000000000e+00
6.0000000000000009e-01 0.0000000000000000e+00 0.0000000000000000e+00
7.0000000000000007e-01 0.0000000000000000e+00 0.0000000000000000e+00
8.0000000000000004e-01 0.0000000000000000e+00 0.0000000000000000e+00
9.0000000000000002e-01 0.0000000000000000e+00 0.0000000000000000e+00
1.0000000000000000e+00 0.0000000000000000e+00 0.0000000000000000e+00
1.1000000000000001e+00 0.0000000000000000e+00 0.0000000000000000e+00
1.2000000000000002e+00 0.0000000000000000e+00 0.0000000000000000e+00
1.3000000000000000e+00 0.0000000000000000e+00 0.0000000000000000e+00
1.4000000000000001e+00 0.0000000000000000e+00 0.0000000000000000e+00
1.5000000000000000e+00 0.0000000000000000e+00 0.0000000000000000e+00
1.6000000000000001e+00 0.0000000000000000e+00 0.0000000000000000e+00
1.7000000000000002e+00 0.0000000000000000e+00 0.0000000000000000e+00
1.8000000000000000e+00 0.0000000000000000e+00 0.0000000000000000e+00
1.9000000000000001e+00 0.0000000000000000e+00 0.0000000000000000e+00
2.0000000000000000e+00 0.0000000000000000e+00 0.0000000000000000e+00
2.1000000000000001e+00 0.0000000000000000e+00 0.0000000000000000e+00
2.2000000000000002e+00 0.0000000000000000e+00 0.0000000000000000e+00
2.3000000000000003e+00 0.0000000000000000e+00 0.0000000000000000e+00
2.4000000000000004e+00 0.0000000000000000e+00 0.0000000000000000e+00
2.5000000000000000e+00 0.0000000000000000e+00 0.0000000000000000e+00
2.6000000000000001e+00 0.0000000000000000e+00 0.0000000000000000e+00
2.7000000000000002e+00 0.0000000000000000e+00 0.0000000000000000e+00
2.8000000000000003e+00 0.0000000000000000e+00 0.0000000000000000e+00
2.9000000000000004e+00 0.0000000000000000e+00 0.0000000000000000e+00
3.0000000000000000e+00 0.0000000000000000e+00 0.0000000000000000e+00
3.1000000000000001e+00 0.0000000000000000e+00 0.0000000000000000e+00
3.2000000000000002e+00 0.0000000000000000e+00 0.0000000000000000e+00
3.3000000000000003e+00 0.0000000000000000e+00 0.0000000000000000e+00
3.4000000000000004e+00 0.0000000000000000e+00 0.0000000000000000e+00
3.5000000000000000e+00 0.0000000000000000e+00 0.0000000000000000e+00
3.6000000000000001e+00 0.0000000000000000e+00 0.0000000000000000e+00
3.7000000000000002e+00 0.0000000000000000e+00 0.0000000000000000e+00
3.8000000000000003e+00 0.0000000000000000e+00 0.0000000000000000e+00
3.9000000000000004e+00 0.0000000000000000e+00 0.0000000000000000e+00
4.0000000000000000e+00 0.0000000000000000e+00 0.0000000000000000e+00
4.1000000000000005e+00 0.0000000000000000e+00 0.0000000000000000e+00
4.2000000000000002e+00 0.0000000000000000e+00 0.0000000000000000e+00
4.2999999999999998e+00 0.0000000000000000e+00 0.0000000000000000e+00
4.4000000000000004e+00 0.0000000000000000e+00 0.0000000000000000e+00
4.5000000000000000e+00 0.0000000000000000e+00 0.0000000000000000e+00
4.6000000000000005e+00 0.0000000000000000e+00 0.0000000000000000e+00
4.7000000000000002e+00 0.0000000000000000e+00 0.0000000000000000e+00
4.8000000000000007e+00 0.0000000000000000e+00 0.0000000000000000e+00
4.9000000000000004e+00 0.0000000000000000e+00 0.0000000000000000e+00
5.0000000000000000e+00 0.0000000000000000e+00 0.0000000000000000e+00
5.1000000000000005e+00 0.0000000000000000e+00 0.0000000000000000e+00
5.2000000000000002e+00 0.0000000000000000e+00 0.0000000000000000e+00
5.3000000000000007e+00 0.0000000000000000e+00 0.0000000000000000e+00
5.4000000000000004e+00 0.0000000000000000e+00 0.0000000000000000e+00
5.5000000000000000e+00 0.0000000000000000e+00 0.0000000000000000e+00
5.6000000000000005e+00 0.0000000000000000e+00 0.0000000000000000e+00
5.7000000000000002e+00 0.0000000000000000e+00 0.0000000000000000e+00
5.8000000000000007e+00 0.0000000000000000e+00 0.0000000000000000e+00
5.9000000000000004e+00 0.0000000000000000e+00 0.0000000000000000e+00
6.0000000000000000e+00 0.0000000000000000e+00 0.0000000000000000e+00
6.1000000000000005e+00 0.0000000000000000e+00 0.0000000000000000e+00
6.2000000000000002e+00 0.0000000000000000e+00 0.0000000000000000e+00
6.3000000000000007e+00 0.0000000000000000e+00 0.0000000000000000e+00
6.4000000000000004e+00 0.0000000000000000e+00 0.0000000000000000e+00
6.5000000000000000e+00 0.0000000000000000e+00 0.0000000000000000e+00
6.6000000000000005e+00 0.0000000000000000e+00 0.0000000000000000e+00
6.7000000000000002e+00 0.0000000000000000e+00 0.0000000000000000e+00
6.8000000000000007e+00 0.0000000000000000e+00 0.0000000000000000e+00
6.9000000000000004e+00 0.0000000000000000e+00 0.0000000000000000e+00
7.0000000000000000e+00 0.0000000000000000e+00 0.0000000000000000e+00
7.1000000000000005e+00 0.0000000000000000e+00 0.0000000000000000e+00
7.2000000000000002e+00 0.0000000000000000e+00 0.0000000000000000e+00
7.3000000000000007e+00 0.0000000000000000e+00 0.0000000000000000e+00
7.4000000000000004e+00 0.0000000000000000e+00 0.0000000000000000e+00
7.5000000000000000e+00 0.0000000000000000e+00 0.0000000000000000e+00
7.6000000000000005e+00 0.0000000000000000e+00 0.0000000000000000e+00
7.7000000000000002e+00 0.0000000000000000e+00 0.0000000000000000e+00
7.8000000000000007e+00 0.0000000000000000e+00 0.0000000000000000e+00
7.9000000000000004e+00 0.0000000000000000e+00 0.0000000000000000e+00
8.0000000000000000e+00 0.0000000000000000e+00 0.0000000000000000e+00
8.0999999999999996e+00 0.0000000000000000e+00 0.0000000000000000e+00
8.2000000000000011e+00 0.0000000000000000e+00 0.0000000000000000e+00
8.3000000000000007e+00 0.0000000000000000e+00 0.0000000000000000e+00
8.4000000000000004e+00 0.0000000000000000e+00 0.0000000000000000e+00
8.5000000000000000e+00 0.0000000000000000e+00 0.0000000000000000e+00
8.5999999999999996e+00 0.0000000000000000e+00 0.0000000000000000e+00
8.7000000000000011e+00 0.0000000000000000e+00 0.0000000000000000e+00
8.8000000000000007e+00 0.0000000000000000e+00 0.0000000000000000e+00
8.9000000000000004e+00 0.0000000000000000e+00 0.0000000000000000e+00
9.0000000000000000e+00 0.0000000000000000e+00 0.0000000000000000e+00
9.0999999999999996e+00 0.0000000000000000e+00 0.0000000000000000e+00
9.2000000000000011e+00 0.0000000000000000e+00 0.0000000000000000e+00
9.3000000000000007e+00 0.0000000000000000e+00 0.0000000000000000e+00
9.4000000000000004e+00 0.0000000000000000e+00 0.0000000000000000e+00
9.5000000000000000e+00 0.0000000000000000e+00 0.0000000000000000e+00
9.6000000000000014e+00 0.0000000000000000e+00 0.0000000000000000e+00
9.7000000000000011e+00 0.0000000000000000e+00 0.0000000000000000e+00
9.8000000000000007e+00 0.0000000000000000e+00 0.0000000000000000e+00
9.9000000000000004e+00 0.0000000000000000e+00 0.0000000000000000e+00
1.0000000000000000e+01 0.0000000000000000e+00 0.0000000000000000e+00

POINT_DATA 101

VECTORS velocity float
4.3176769881328703e+00 0.0000000000000000e+00 0.0000000000000000e+00
4.3175588428390048e+00 0.0000000000000000e+00 0.0000000000000000e+00
4.3174484074642807e+00 0.0000000000000000e+00 0.0000000000000000e+00
4.3173414505906811e+00 0.0000000000000000e+00 0.0000000000000000e+00
4.3172362071989161e+00 0.0000000000000000e+00 0.0000000000000000e+00
4.3171327821254897e+00 0.0000000000000000e+00 0.0000000000000000e+00
4.3170332385847576e+00 0.0000000000000000e+00 0.0000000000000000e+00
4.3169374122470545e+00 0.0000000000000000e+00 0.0000000000000000e+00
4.3168416985780258e+00 0.0000000000000000e+00 0.0000000000000000e+00
4.3167433467723617e+00 0.0000000000000000e+00 0.0000000000000000e+00
4.3166435779355830e+00 0.0000000000000000e+00 0.0000000000000000e+00
4.3165435118859623e+00 0.0000000000000000e+00 0.0000000000000000e+00
4.3164440853763990e+00 0.0000000000000000e+00 0.0000000000000000e+00
4.3163472491341546e+00 0.0000000000000000e+00 0.0000000000000000e+00
4.3162534464556304e+00 0.0000000000000000e+00 0.0000000000000000e+00
4.3161620100633558e+00 0.0000000000000000e+00 0.0000000000000000e+00
4.3160707756180345e+00 0.0000000000000000e+00 0.0000000000000000e+00
4.3159784242842854e+00 0.0000000000000000e+00 0.0000000000000000e+00
4.3158862249123091e+00 0.0000000000000000e+00 0.0000000000000000e+00
4.3157946451879745e+00 0.0000000000000000e+00 0.0000000000000000e+00
4.3157036004009566e+00 0.0000000000000000e+00 0.0000000000000000e+00
4.3156135705141452e+00 0.0000000000000000e+00 0.0000000000000000e+00
4.3155249234351833e+00 0.0000000000000000e+00 0.0000000000000000e+00
4.3154379401715959e+00 0.0000000000000000e+00 0.0000000000000000e+00
4.3153526579376056e+00 0.0000000000000000e+00 0.0000000000000000e+00
4.3152680259525384e+00 0.0000000000000000e+00 0.0000000000000000e+00
4.3151839268422965e+00 0.0000000000000000e+00 0.0000000000000000e+00
4.3151005815105909e+00 0.0000000000000000e+00 0.0000000000000000e+00
4.3150181521006976e+00 0.0000000000000000e+00 0.0000000000000000e+00
4.3149361859669986e+00 0.0000000000000000e+00 0.0000000000000000e+00
4.3148543450948003e+00 0.0000000000000000e+00 0.0000000000000000e+00
4.3147730057717046e+00 0.0000000000000000e+00 0.0000000000000000e+00
4.3146925946822892e+00 0.0000000000000000e+00 0.0000000000000000e+00
4.3146135950021236e+00 0.0000000000000000e+00 0.0000000000000000e+00
4.3145358653248564e+00 0.0000000000000000e+00 0.0000000000000000e+00
4.3144592099728536e+00 0.0000000000000000e+00 0.0000000000000000e+00
4.3143835599955658e+00 0.0000000000000000e+00 0.0000000000000000e+00
4.3143088650696324e+00 0.0000000000000000e+00 0.0000000000000000e+00
4.3142351512752244e+00 0.0000000000000000e+00 0.0000000000000000e+00
4.3141622642005872e+00 0.0000000000000000e+00 0.0000000000000000e+00
4.3140900070677120e+00 0.0000000000000000e+00 0.0000000000000000e+00
4.3140185236341440e+00 0.0000000000000000e+00 0.0000000000000000e+00
4.3139478554812287e+00 0.0000000000000000e+00 0.0000000000000000e+00
4.3138780222753175e+00 0.0000000000000000e+00 0.0000000000000000e+00
4.3138090338311343e+00 0.0000000000000000e+00 0.0000000000000000e+00
4.3137408954840453e+00 0.0000000000000000e+00 0.0000000000000000e+00
4.3136736109620930e+00 0.0000000000000000e+00 0.0000000000000000e+00
4.3136071828819409e+00 0.0000000000000000e+00 0.0000000000000000e+00
4.3135416138892966e+00 0.0000000000000000e+00 0.0000000000000000e+00
4.3134769061957909e+00 0.0000000000000000e+00 0.0000000000000000e+00
4.3134130615793271e+00 0.0000000000000000e+00 0.0000000000000000e+00
4.3133500821613042e+00 0.0000000000000000e+00 0.0000000000000000e+00
4.3132879699094850e+00 0.0000000000000000e+00 0.0000000000000000e+00
4.3132267266849054e+00 0.0000000000000000e+00 0.0000000000000000e+00
4.3131663545039691e+00 0.0000000000000000e+00 0.0000000000000000e+00
4.3131068553997194e+00 0.0000000000000000e+00 0.0000000000000000e+00
4.3130482306329307e+00 0.0000000000000000e+00 0.0000000000000000e+00
4.3129904819473506e+00 0.0000000000000000e+00 0.0000000000000000e+00
4.3129336116882948e+00 0.0000000000000000e+00 0.0000000000000000e+00
4.3128776215886280e+00 0.0000000000000000e+00 0.0000000000000000e+00
4.3128225132526712e+00 0.0000000000000000e+00 0.0000000000000000e+00
4.3127682884741274e+00 0.0000000000000000e+00 0.0000000000000000e+00
4.3127149488526335e+00 0.0000000000000000e+00 0.0000000000000000e+00
4.3126624956993274e+00 0.0000000000000000e+00 0.0000000000000000e+00
4.3126109304976552e+00 0.0000000000000000e+00 0.0000000000000000e+00
4.3125602547874857e+00 0.0000000000000000e+00 0.0000000000000000e+00
4.3125104699804666e+00 0.0000000000000000e+00 0.0000000000000000e+00
4.3124615776047177e+00 0.0000000000000000e+00 0.0000000000000000e+00
4.3124135791343052e+00 0.0000000000000000e+00 0.0000000000000000e+00
4.3123664759225928e+00 0.0000000000000000e+00 0.0000000000000000e+00
4.3123202692775164e+00 0.0000000000000000e+00 0.0000000000000000e+00
4.3122749604930775e+00 0.0000000000000000e+00 0.0000000000000000e+00
4.3122305507759702e+00 0.0000000000000000e+00 0.0000000000000000e+00
4.3121870413288441e+00 0.0000000000000000e+00 0.0000000000000000e+00
4.3121444333852077e+00 0.0000000000000000e+00 0.0000000000000000e+00
4.3121027278864039e+00 0.0000000000000000e+00 0.0000000000000000e+00
4.3120619262286111e+00 0.0000000000000000e+00 0.0000000000000000e+00
4.3120220291671094e+00 0.0000000000000000e+00 0.0000000000000000e+00
4.3119830380308874e+00 0.0000000000000000e+00 0.0000000000000000e+00
4.3119449541454253e+00 0.0000000000000000e+00 0.0000000000000000e+00
4.3119077779567956e+00 0.0000000000000000e+00 0.0000000000000000e+00
4.3118715103351333e+00 0.0000000000000000e+00 0.0000000000000000e+00
4.3118361520438793e+00 0.0000000000000000e+00 0.0000000000000000e+00
4.3118017047859754e+00 0.0000000000000000e+00 0.0000000000000000e+00
4.3117681688860596e+00 0.0000000000000000e+00 0.0000000000000000e+00
4.3117355442594105e+00 0.0000000000000000e+00 0.0000000000000000e+00
4.3117038313592344e+00 0.0000000000000000e+00 0.0000000000000000e+00
4.3116730314800069e+00 0.0000000000000000e+00 0.0000000000000000e+00
4.3116431457942532e+00 0.0000000000000000e+00 0.0000000000000000e+00
4.3116141748774961e+00 0.0000000000000000e+00 0.0000000000000000e+00
4.3115861200535353e+00 0.0000000000000000e+00 0.0000000000000000e+00
4.3115589809331540e+00 0.0000000000000000e+00 0.0000000000000000e+00
4.3115327573861926e+00 0.0000000000000000e+00 0.0000000000000000e+00
4.3115074520411962e+00 0.0000000000000000e+00 0.0000000000000000e+00
4.3114830614617157e+00 0.0000000000000000e+00 0.0000000000000000e+00
4.3114595947035657e+00 0.0000000000000000e+00 0.0000000000000000e+00
4.3114370280868304e+00 0.0000000000000000e+00 0.0000000000000000e+00
4.3114154272640475e+00 0.0000000000000000e+00 0.0000000000000000e+00
4.3113946163836578e+00 0.0000000000000000e+00 0.0000000000000000e+00
4.3113750682059804e+00 0.0000000000000000e+00 0.0000000000000000e+00
4.3113555200283029e+00 0.0000000000000000e+00 0.0000000000000000e+00


SCALARS pressure float
LOOKUP_TABLE default
-4.3810523627415439e+00
-4.3390755194209856e+00
-4.2970986761004273e+00
-4.2550982159107074e+00
-4.2130538825978592e+00
-4.1709559702845764e+00
-4.1288034280166315e+00
-4.0866036211979093e+00
-4.0443571245155709e+00
-4.0020515167964863e+00
-3.9596755007673736e+00
-3.9172330707046688e+00
-3.8747294669740304e+00
-3.8321690338540253e+00
-3.7895598363714065e+00
-3.7469049935176035e+00
-3.7042027465792167e+00
-3.6614456437640963e+00
-3.6186297539419998e+00
-3.5757604182164902e+00
-3.5328399889366002e+00
-3.4898685436677419e+00
-3.4468482184891527e+00
-3.4037811845214829e+00
-3.3606697888189259e+00
-3.3175154208189168e+00
-3.2743148108192757e+00
-3.2310677426892926e+00
-3.1877756994846074e+00
-3.1444401206018129e+00
-3.1010600322026716e+00
-3.0576345755080609e+00
-3.0141656758747279e+00
-2.9706557395209194e+00
-2.9271076413754846e+00
-2.8835219313931328e+00
-2.8398986585904962e+00
-2.7962383024415578e+00
-2.7525414454086712e+00
-2.7088090039424522e+00
-2.6650411263981941e+00
-2.6212375294333721e+00
-2.5773993010488807e+00
-2.5335273036445427e+00
-2.4896223036995551e+00
-2.4456850255631006e+00
-2.4017161757848475e+00
-2.3577164554270245e+00
-2.3136865614944910e+00
-2.2696271915118715e+00
-2.2255390424044994e+00
-2.1814228105081814e+00
-2.1372791943536131e+00
-2.0931088930210784e+00
-2.0489126059829905e+00
-2.0046910340812376e+00
-1.9604448791500051e+00
-1.9161748409168522e+00
-1.8718816216248384e+00
-1.8275659267501987e+00
-1.7832284604568354e+00
-1.7388699269654821e+00
-1.6944910316916677e+00
-1.6500924798578369e+00
-1.6056749762323939e+00
-1.5612392268094424e+00
-1.5167859384878473e+00
-1.4723158182883525e+00
-1.4278295742160005e+00
-1.3833279146572224e+00
-1.3388115480180363e+00
-1.2942811829254175e+00
-1.2497375282897956e+00
-1.2051812929508496e+00
-1.1606131860394107e+00
-1.1160339170707467e+00
-1.0714441948070925e+00
-1.0268447300489472e+00
-9.8223623156579376e-01
-9.3761941027332352e-01
-8.9299497698824026e-01
-8.4836363948127325e-01
-8.0372610704044989e-01
-7.5908308873854535e-01
-7.1443529730754496e-01
-6.6978344060228512e-01
-6.2512822432990212e-01
-5.8047035636734445e-01
-5.3581054827837449e-01
-4.9114951027449044e-01
-4.4648795065973840e-01
-4.0182658020969048e-01
-3.5716610367119506e-01
-3.1250722507909878e-01
-2.6785066050686057e-01
-2.2319709970298332e-01
-1.7854728705975004e-01
-1.3390182235904249e-01
-8.9261693939120895e-02
-4.4626851660979953e-02
0.0000000000000000e+00


SCALARS diameter float
LOOKUP_TABLE default
9.9960208700442077e-01
9.9960732170756517e-01
9.9961143163712141e-01
9.9961588830550108e-01
9.9962033576393106e-01
9.9962477823217422e-01
9.9962814291171076e-01
9.9963046224018426e-01
9.9963308343979429e-01
9.9963730602775647e-01
9.9964205025637232e-01
9.9964679759747821e-01
9.9965151006668407e-01
9.9965557927650661e-01
9.9965873991004117e-01
9.9966171068434639e-01
9.9966477393436448e-01
9.9966888569032419e-01
9.9967313984524453e-01
9.9967734193938507e-01
9.9968157192091522e-01
9.9968576427066080e-01
9.9968964105903446e-01
9.9969335714108076e-01
9.9969677863149986e-01
9.9970042260919267e-01
9.9970426648652311e-01
9.9970807373011317e-01
9.9971188652336840e-01
9.9971573399082414e-01
9.9971992953874289e-01
9.9972412365466790e-01
9.9972829825782650e-01
9.9973221874082951e-01
9.9973604680540407e-01
9.9973987791638141e-01
9.9974371202627865e-01
9.9974754940113952e-01
9.9975138971413835e-01
9.9975524207176691e-01
9.9975922733024458e-01
9.9976321146855296e-01
9.9976719599952357e-01
9.9977118134737564e-01
9.9977516768591890e-01
9.9977915516482874e-01
9.9978314385170364e-01
9.9978713382161677e-01
9.9979112502931777e-01
9.9979511731018944e-01
9.9979911090429674e-01
9.9980310571855369e-01
9.9980710171906351e-01
9.9981109897041032e-01
9.9981509739767538e-01
9.9981909692068549e-01
9.9982309766848831e-01
9.9982709980364859e-01
9.9983110292362898e-01
9.9983510708668699e-01
9.9983911235498923e-01
9.9984311866955955e-01
9.9984712596864089e-01
9.9985113434192807e-01
9.9985514380754714e-01
9.9985915427542404e-01
9.9986316578310619e-01
9.9986717827315119e-01
9.9987119169845595e-01
9.9987520606188562e-01
9.9987922135941976e-01
9.9988323756661779e-01
9.9988725467261963e-01
9.9989127265625666e-01
9.9989529147011602e-01
9.9989931112944030e-01
9.9990333160175726e-01
9.9990735279683063e-01
9.9991137488857740e-01
9.9991539741226376e-01
9.9991942072036177e-01
9.9992344475450090e-01
9.9992746948416789e-01
9.9993149471704190e-01
9.9993552027213983e-01
9.9993954688761444e-01
9.9994357420396773e-01
9.9994760227537427e-01
9.9995163066407355e-01
9.9995565945515252e-01
9.9995968853842054e-01
9.9996371782920512e-01
9.9996774815592593e-01
9.9997177827776074e-01
9.9997580894674376e-01
9.9997983998588580e-01
9.9998387136724409e-01
9.9998790306984109e-01
9.9999193498266714e-01
9.9999596716566297e-01
1.0000000000412492e+00


SCALARS iters float
LOOKUP_TABLE default
3.0000000000000000e+00
3.0000000000000000e+00
3.0000000000000000e+00
3.0000000000000000e+00
3.0000000000000000e+00
3.0000000000000000e+00
3.0000000000000000e+00
3.0000000000000000e+00
3.0000000000000000e+00
3.0000000000000000e+00
3.0000000000000000e+00
3.0000000000000000e+00
3.0000000000000000e+00
3.0000000000000000e+00
3.0000000000000000e+00
3.0000000000000000e+00
3.0000000000000000e+00
3.0000000000000000e+00
3.0000000000000000e+00
3.0000000000000000e+00
3.0000000000000000e+00
3.0000000000000000e+00
3.0000000000000000e+00
3.0000000000000000e+00
3.0000000000000000e+00
3.0000000000000000e+00
3.0000000000000000e+00
3.0000000000000000e+00
3.0000000000000000e+00
3.0000000000000000e+00
3.0000000000000000e+00
3.0000000000000000e+00
3.0000000000000000e+00
3.0000000000000000e+00
3.0000000000000000e+00
3.0000000000000000e+00
3.0000000000000000e+00
3.0000000000000000e+00
3.0000000000000000e+00
3.0000000000000000e+00
3.0000000000000000e+00
3.0000000000000000e+00
3.0000000000000000e+00
3.0000000000000000e+00
3.0000000000000000e+00
3.0000000000000000e+00
3.0000000000000000e+00
3.0000000000000000e+00
3.0000000000000000e+00
3.0000000000000000e+00
3.0000000000000000e+00
3.0000000000000000e+00
3.0000000000000000e+00
3.0000000000000000e+00
3.0000000000000000e+00
3.0000000000000000e+00
3.0000000000000000e+00
3.0000000000000000e+00
3.0000000000000000e+00
3.0000000000000000e+00
3.0000000000000000e+00
3.0000000000000000e+00
3.0000000000000000e+00
3.0000000000000000e+00
3.0000000000000000e+00
3.0000000000000000e+00
3.0000000000000000e+00
3.0000000000000000e+00
3.0000000000000000e+00
3.0000000000000000e+00
3.0000000000000000e+00
3.0000000000000000e+00
3.0000000000000000e+00
3.0000000000000000e+00
3.0000000000000000e+00
3.0000000000000000e+00
3.0000000000000000e+00
3.0000000000000000e+00
3.0000000000000000e+00
3.0000000000000000e+00
3.0000000000000000e+00
3.0000000000000000e+00
3.0000000000000000e+00
3.0000000000000000e+00
3.0000000000000000e+00
3.0000000000000000e+00
3.0000000000000000e+00
3.0000000000000000e+00
3.0000000000000000e+00
3.0000000000000000e+00
3.0000000000000000e+00
3.0000000000000000e+00
3.0000000000000000e+00
3.0000000000000000e+00
3.0000000000000000e+00
3.0000000000000000e+00
3.0000000000000000e+00
3.0000000000000000e+00
3.0000000000000000e+00
3.0000000000000000e+00
3.0000000000000000e+00


