# vtk DataFile Version 2.0

ASCII

DATASET UNSTRUCTURED_GRID

POINTS 101 float

0.0000000000000000e+00 0.0000000000000000e+00 0.0000000000000000e+00
1.0000000000000001e-01 0.0000000000000000e+00 0.0000000000000000e+00
2.0000000000000001e-01 0.0000000000000000e+00 0.0000000000000000e+00
3.0000000000000004e-01 0.0000000000000000e+00 0.0000000000000000e+00
4.0000000000000002e-01 0.0000000000000000e+00 0.0000000000000000e+00
5.0000000000000000e-01 0.0000000000000000e+00 0.0000000000000000e+00
6.0000000000000009e-01 0.0000000000000000e+00 0.0000000000000000e+00
7.0000000000000007e-01 0.0000000000000000e+00 0.0000000000000000e+00
8.0000000000000004e-01 0.0000000000000000e+00 0.0000000000000000e+00
9.0000000000000002e-01 0.0000000000000000e+00 0.0000000000000000e+00
1.0000000000000000e+00 0.0000000000000000e+00 0.0000000000000000e+00
1.1000000000000001e+00 0.0000000000000000e+00 0.0000000000000000e+00
1.2000000000000002e+00 0.0000000000000000e+00 0.0000000000000000e+00
1.3000000000000000e+00 0.0000000000000000e+00 0.0000000000000000e+00
1.4000000000000001e+00 0.0000000000000000e+00 0.0000000000000000e+00
1.5000000000000000e+00 0.0000000000000000e+00 0.0000000000000000e+00
1.6000000000000001e+00 0.0000000000000000e+00 0.0000000000000000e+00
1.7000000000000002e+00 0.0000000000000000e+00 0.0000000000000000e+00
1.8000000000000000e+00 0.0000000000000000e+00 0.0000000000000000e+00
1.9000000000000001e+00 0.0000000000000000e+00 0.0000000000000000e+00
2.0000000000000000e+00 0.0000000000000000e+00 0.0000000000000000e+00
2.1000000000000001e+00 0.0000000000000000e+00 0.0000000000000000e+00
2.2000000000000002e+00 0.0000000000000000e+00 0.0000000000000000e+00
2.3000000000000003e+00 0.0000000000000000e+00 0.0000000000000000e+00
2.4000000000000004e+00 0.0000000000000000e+00 0.0000000000000000e+00
2.5000000000000000e+00 0.0000000000000000e+00 0.0000000000000000e+00
2.6000000000000001e+00 0.0000000000000000e+00 0.0000000000000000e+00
2.7000000000000002e+00 0.0000000000000000e+00 0.0000000000000000e+00
2.8000000000000003e+00 0.0000000000000000e+00 0.0000000000000000e+00
2.9000000000000004e+00 0.0000000000000000e+00 0.0000000000000000e+00
3.0000000000000000e+00 0.0000000000000000e+00 0.0000000000000000e+00
3.1000000000000001e+00 0.0000000000000000e+00 0.0000000000000000e+00
3.2000000000000002e+00 0.0000000000000000e+00 0.0000000000000000e+00
3.3000000000000003e+00 0.0000000000000000e+00 0.0000000000000000e+00
3.4000000000000004e+00 0.0000000000000000e+00 0.0000000000000000e+00
3.5000000000000000e+00 0.0000000000000000e+00 0.0000000000000000e+00
3.6000000000000001e+00 0.0000000000000000e+00 0.0000000000000000e+00
3.7000000000000002e+00 0.0000000000000000e+00 0.0000000000000000e+00
3.8000000000000003e+00 0.0000000000000000e+00 0.0000000000000000e+00
3.9000000000000004e+00 0.0000000000000000e+00 0.0000000000000000e+00
4.0000000000000000e+00 0.0000000000000000e+00 0.0000000000000000e+00
4.1000000000000005e+00 0.0000000000000000e+00 0.0000000000000000e+00
4.2000000000000002e+00 0.0000000000000000e+00 0.0000000000000000e+00
4.2999999999999998e+00 0.0000000000000000e+00 0.0000000000000000e+00
4.4000000000000004e+00 0.0000000000000000e+00 0.0000000000000000e+00
4.5000000000000000e+00 0.0000000000000000e+00 0.0000000000000000e+00
4.6000000000000005e+00 0.0000000000000000e+00 0.0000000000000000e+00
4.7000000000000002e+00 0.0000000000000000e+00 0.0000000000000000e+00
4.8000000000000007e+00 0.0000000000000000e+00 0.0000000000000000e+00
4.9000000000000004e+00 0.0000000000000000e+00 0.0000000000000000e+00
5.0000000000000000e+00 0.0000000000000000e+00 0.0000000000000000e+00
5.1000000000000005e+00 0.0000000000000000e+00 0.0000000000000000e+00
5.2000000000000002e+00 0.0000000000000000e+00 0.0000000000000000e+00
5.3000000000000007e+00 0.0000000000000000e+00 0.0000000000000000e+00
5.4000000000000004e+00 0.0000000000000000e+00 0.0000000000000000e+00
5.5000000000000000e+00 0.0000000000000000e+00 0.0000000000000000e+00
5.6000000000000005e+00 0.0000000000000000e+00 0.0000000000000000e+00
5.7000000000000002e+00 0.0000000000000000e+00 0.0000000000000000e+00
5.8000000000000007e+00 0.0000000000000000e+00 0.0000000000000000e+00
5.9000000000000004e+00 0.0000000000000000e+00 0.0000000000000000e+00
6.0000000000000000e+00 0.0000000000000000e+00 0.0000000000000000e+00
6.1000000000000005e+00 0.0000000000000000e+00 0.0000000000000000e+00
6.2000000000000002e+00 0.0000000000000000e+00 0.0000000000000000e+00
6.3000000000000007e+00 0.0000000000000000e+00 0.0000000000000000e+00
6.4000000000000004e+00 0.0000000000000000e+00 0.0000000000000000e+00
6.5000000000000000e+00 0.0000000000000000e+00 0.0000000000000000e+00
6.6000000000000005e+00 0.0000000000000000e+00 0.0000000000000000e+00
6.7000000000000002e+00 0.0000000000000000e+00 0.0000000000000000e+00
6.8000000000000007e+00 0.0000000000000000e+00 0.0000000000000000e+00
6.9000000000000004e+00 0.0000000000000000e+00 0.0000000000000000e+00
7.0000000000000000e+00 0.0000000000000000e+00 0.0000000000000000e+00
7.1000000000000005e+00 0.0000000000000000e+00 0.0000000000000000e+00
7.2000000000000002e+00 0.0000000000000000e+00 0.0000000000000000e+00
7.3000000000000007e+00 0.0000000000000000e+00 0.0000000000000000e+00
7.4000000000000004e+00 0.0000000000000000e+00 0.0000000000000000e+00
7.5000000000000000e+00 0.0000000000000000e+00 0.0000000000000000e+00
7.6000000000000005e+00 0.0000000000000000e+00 0.0000000000000000e+00
7.7000000000000002e+00 0.0000000000000000e+00 0.0000000000000000e+00
7.8000000000000007e+00 0.0000000000000000e+00 0.0000000000000000e+00
7.9000000000000004e+00 0.0000000000000000e+00 0.0000000000000000e+00
8.0000000000000000e+00 0.0000000000000000e+00 0.0000000000000000e+00
8.0999999999999996e+00 0.0000000000000000e+00 0.0000000000000000e+00
8.2000000000000011e+00 0.0000000000000000e+00 0.0000000000000000e+00
8.3000000000000007e+00 0.0000000000000000e+00 0.0000000000000000e+00
8.4000000000000004e+00 0.0000000000000000e+00 0.0000000000000000e+00
8.5000000000000000e+00 0.0000000000000000e+00 0.0000000000000000e+00
8.5999999999999996e+00 0.0000000000000000e+00 0.0000000000000000e+00
8.7000000000000011e+00 0.0000000000000000e+00 0.0000000000000000e+00
8.8000000000000007e+00 0.0000000000000000e+00 0.0000000000000000e+00
8.9000000000000004e+00 0.0000000000000000e+00 0.0000000000000000e+00
9.0000000000000000e+00 0.0000000000000000e+00 0.0000000000000000e+00
9.0999999999999996e+00 0.0000000000000000e+00 0.0000000000000000e+00
9.2000000000000011e+00 0.0000000000000000e+00 0.0000000000000000e+00
9.3000000000000007e+00 0.0000000000000000e+00 0.0000000000000000e+00
9.4000000000000004e+00 0.0000000000000000e+00 0.0000000000000000e+00
9.5000000000000000e+00 0.0000000000000000e+00 0.0000000000000000e+00
9.6000000000000014e+00 0.0000000000000000e+00 0.0000000000000000e+00
9.7000000000000011e+00 0.0000000000000000e+00 0.0000000000000000e+00
9.8000000000000007e+00 0.0000000000000000e+00 0.0000000000000000e+00
9.9000000000000004e+00 0.0000000000000000e+00 0.0000000000000000e+00
1.0000000000000000e+01 0.0000000000000000e+00 0.0000000000000000e+00

POINT_DATA 101

VECTORS velocity float
3.7015987950671585e+00 0.0000000000000000e+00 0.0000000000000000e+00
3.7019254877712267e+00 0.0000000000000000e+00 0.0000000000000000e+00
3.7022173555077793e+00 0.0000000000000000e+00 0.0000000000000000e+00
3.7024890390011573e+00 0.0000000000000000e+00 0.0000000000000000e+00
3.7027496338334354e+00 0.0000000000000000e+00 0.0000000000000000e+00
3.7030049962539811e+00 0.0000000000000000e+00 0.0000000000000000e+00
3.7032593730725680e+00 0.0000000000000000e+00 0.0000000000000000e+00
3.7035148298043081e+00 0.0000000000000000e+00 0.0000000000000000e+00
3.7037696457034404e+00 0.0000000000000000e+00 0.0000000000000000e+00
3.7040218048648805e+00 0.0000000000000000e+00 0.0000000000000000e+00
3.7042716312492980e+00 0.0000000000000000e+00 0.0000000000000000e+00
3.7045194846805907e+00 0.0000000000000000e+00 0.0000000000000000e+00
3.7047660547502783e+00 0.0000000000000000e+00 0.0000000000000000e+00
3.7050129258845823e+00 0.0000000000000000e+00 0.0000000000000000e+00
3.7052601120261173e+00 0.0000000000000000e+00 0.0000000000000000e+00
3.7055072794869526e+00 0.0000000000000000e+00 0.0000000000000000e+00
3.7057512425427022e+00 0.0000000000000000e+00 0.0000000000000000e+00
3.7059900043054577e+00 0.0000000000000000e+00 0.0000000000000000e+00
3.7062263884425981e+00 0.0000000000000000e+00 0.0000000000000000e+00
3.7064617670477293e+00 0.0000000000000000e+00 0.0000000000000000e+00
3.7066959124808116e+00 0.0000000000000000e+00 0.0000000000000000e+00
3.7069287588538749e+00 0.0000000000000000e+00 0.0000000000000000e+00
3.7071606688499519e+00 0.0000000000000000e+00 0.0000000000000000e+00
3.7073917474082796e+00 0.0000000000000000e+00 0.0000000000000000e+00
3.7076207706008990e+00 0.0000000000000000e+00 0.0000000000000000e+00
3.7078480745871043e+00 0.0000000000000000e+00 0.0000000000000000e+00
3.7080735125144679e+00 0.0000000000000000e+00 0.0000000000000000e+00
3.7082971897686297e+00 0.0000000000000000e+00 0.0000000000000000e+00
3.7085191999253189e+00 0.0000000000000000e+00 0.0000000000000000e+00
3.7087390643922804e+00 0.0000000000000000e+00 0.0000000000000000e+00
3.7089562816230419e+00 0.0000000000000000e+00 0.0000000000000000e+00
3.7091712121950864e+00 0.0000000000000000e+00 0.0000000000000000e+00
3.7093842148597607e+00 0.0000000000000000e+00 0.0000000000000000e+00
3.7095958026756839e+00 0.0000000000000000e+00 0.0000000000000000e+00
3.7098058790422987e+00 0.0000000000000000e+00 0.0000000000000000e+00
3.7100142211459932e+00 0.0000000000000000e+00 0.0000000000000000e+00
3.7102207419810673e+00 0.0000000000000000e+00 0.0000000000000000e+00
3.7104253936341669e+00 0.0000000000000000e+00 0.0000000000000000e+00
3.7106281616287693e+00 0.0000000000000000e+00 0.0000000000000000e+00
3.7108290144369120e+00 0.0000000000000000e+00 0.0000000000000000e+00
3.7110280026741114e+00 0.0000000000000000e+00 0.0000000000000000e+00
3.7112251408123580e+00 0.0000000000000000e+00 0.0000000000000000e+00
3.7114204321994588e+00 0.0000000000000000e+00 0.0000000000000000e+00
3.7116138725880257e+00 0.0000000000000000e+00 0.0000000000000000e+00
3.7118054545691965e+00 0.0000000000000000e+00 0.0000000000000000e+00
3.7119951689044535e+00 0.0000000000000000e+00 0.0000000000000000e+00
3.7121830065204136e+00 0.0000000000000000e+00 0.0000000000000000e+00
3.7123689573956593e+00 0.0000000000000000e+00 0.0000000000000000e+00
3.7125530120094647e+00 0.0000000000000000e+00 0.0000000000000000e+00
3.7127351607199461e+00 0.0000000000000000e+00 0.0000000000000000e+00
3.7129153934765444e+00 0.0000000000000000e+00 0.0000000000000000e+00
3.7130937013087055e+00 0.0000000000000000e+00 0.0000000000000000e+00
3.7132700746648757e+00 0.0000000000000000e+00 0.0000000000000000e+00
3.7134445039723976e+00 0.0000000000000000e+00 0.0000000000000000e+00
3.7136169802932546e+00 0.0000000000000000e+00 0.0000000000000000e+00
3.7137874950848420e+00 0.0000000000000000e+00 0.0000000000000000e+00
3.7139560391740356e+00 0.0000000000000000e+00 0.0000000000000000e+00
3.7141226038021533e+00 0.0000000000000000e+00 0.0000000000000000e+00
3.7142871808315827e+00 0.0000000000000000e+00 0.0000000000000000e+00
3.7144497618066032e+00 0.0000000000000000e+00 0.0000000000000000e+00
3.7146103382119242e+00 0.0000000000000000e+00 0.0000000000000000e+00
3.7147689022008810e+00 0.0000000000000000e+00 0.0000000000000000e+00
3.7149254458775682e+00 0.0000000000000000e+00 0.0000000000000000e+00
3.7150799610993053e+00 0.0000000000000000e+00 0.0000000000000000e+00
3.7152324400937107e+00 0.0000000000000000e+00 0.0000000000000000e+00
3.7153828753053766e+00 0.0000000000000000e+00 0.0000000000000000e+00
3.7155312592478169e+00 0.0000000000000000e+00 0.0000000000000000e+00
3.7156775846874979e+00 0.0000000000000000e+00 0.0000000000000000e+00
3.7158218444881497e+00 0.0000000000000000e+00 0.0000000000000000e+00
3.7159640315823506e+00 0.0000000000000000e+00 0.0000000000000000e+00
3.7161041390819598e+00 0.0000000000000000e+00 0.0000000000000000e+00
3.7162421602772229e+00 0.0000000000000000e+00 0.0000000000000000e+00
3.7163780885533515e+00 0.0000000000000000e+00 0.0000000000000000e+00
3.7165119172397558e+00 0.0000000000000000e+00 0.0000000000000000e+00
3.7166436399345950e+00 0.0000000000000000e+00 0.0000000000000000e+00
3.7167732501674799e+00 0.0000000000000000e+00 0.0000000000000000e+00
3.7169007418608242e+00 0.0000000000000000e+00 0.0000000000000000e+00
3.7170261089618770e+00 0.0000000000000000e+00 0.0000000000000000e+00
3.7171493457097031e+00 0.0000000000000000e+00 0.0000000000000000e+00
3.7172704464577198e+00 0.0000000000000000e+00 0.0000000000000000e+00
3.7173894054583934e+00 0.0000000000000000e+00 0.0000000000000000e+00
3.7175062173450710e+00 0.0000000000000000e+00 0.0000000000000000e+00
3.7176208765451415e+00 0.0000000000000000e+00 0.0000000000000000e+00
3.7177333777724586e+00 0.0000000000000000e+00 0.0000000000000000e+00
3.7178437159035247e+00 0.0000000000000000e+00 0.0000000000000000e+00
3.7179518865179939e+00 0.0000000000000000e+00 0.0000000000000000e+00
3.7180578847534718e+00 0.0000000000000000e+00 0.0000000000000000e+00
3.7181617062767129e+00 0.0000000000000000e+00 0.0000000000000000e+00
3.7182633454023359e+00 0.0000000000000000e+00 0.0000000000000000e+00
3.7183627974864693e+00 0.0000000000000000e+00 0.0000000000000000e+00
3.7184600586439087e+00 0.0000000000000000e+00 0.0000000000000000e+00
3.7185551266042238e+00 0.0000000000000000e+00 0.0000000000000000e+00
3.7186479955746861e+00 0.0000000000000000e+00 0.0000000000000000e+00
3.7187386626869099e+00 0.0000000000000000e+00 0.0000000000000000e+00
3.7188271235745880e+00 0.0000000000000000e+00 0.0000000000000000e+00
3.7189133685150635e+00 0.0000000000000000e+00 0.0000000000000000e+00
3.7189974239643617e+00 0.0000000000000000e+00 0.0000000000000000e+00
3.7190791778630290e+00 0.0000000000000000e+00 0.0000000000000000e+00
3.7191589754080745e+00 0.0000000000000000e+00 0.0000000000000000e+00
3.7192357674659999e+00 0.0000000000000000e+00 0.0000000000000000e+00
3.7193125595239254e+00 0.0000000000000000e+00 0.0000000000000000e+00


SCALARS pressure float
LOOKUP_TABLE default
2.1187426962057994e+01
2.0984638870645497e+01
2.0781850779233000e+01
2.0578922566246455e+01
2.0375791600264925e+01
2.0172422972682330e+01
1.9968795426279875e+01
1.9764893705407886e+01
1.9560711769174947e+01
1.9356257397983985e+01
1.9151540654522311e+01
1.8946563539099888e+01
1.8741327616162287e+01
1.8535833388300837e+01
1.8330077921483781e+01
1.8124063229657533e+01
1.7917793514805780e+01
1.7711283280925365e+01
1.7504540240494695e+01
1.7297555783475641e+01
1.7090327827620566e+01
1.6882860578116887e+01
1.6675158868559222e+01
1.6467226530581431e+01
1.6259067332097477e+01
1.6050685474484339e+01
1.5842078956363903e+01
1.5633252559730449e+01
1.5424209288887534e+01
1.5214951774936502e+01
1.5005484806869330e+01
1.4795813593457664e+01
1.4585940184804151e+01
1.4375866551692253e+01
1.4165593675192687e+01
1.3955124579859836e+01
1.3744462933841879e+01
1.3533611988646427e+01
1.3322574852766358e+01
1.3111354552866395e+01
1.2899954089615804e+01
1.2688376026019993e+01
1.2476623159144165e+01
1.2264698377220258e+01
1.2052604620721045e+01
1.1840344856271999e+01
1.1627922065650342e+01
1.1415339236350778e+01
1.1202599368022506e+01
1.0989705466525690e+01
1.0776660545263136e+01
1.0563467625038665e+01
1.0350129729347071e+01
1.0136649890135944e+01
9.9230311458622520e+00
9.7092765391676856e+00
9.4953891176302676e+00
9.2813719374072239e+00
9.0672280585849538e+00
8.8529605450799593e+00
8.6385724677301550e+00
8.4240669032435136e+00
8.2094469318036776e+00
7.9947156397771764e+00
7.7798761196706403e+00
7.5649314679051756e+00
7.3498847853135301e+00
7.1347391775600952e+00
6.9194977543570939e+00
6.7041636299327019e+00
6.4887399230270173e+00
6.2732297565144597e+00
6.0576362574255418e+00
5.8419625573333924e+00
5.6262117926095350e+00
5.4103871031199198e+00
5.1944916332977549e+00
4.9785285299261144e+00
4.7625009439196750e+00
4.5464120289650811e+00
4.3302649435426721e+00
4.1140628500658938e+00
3.8978089128445892e+00
3.6815063008231625e+00
3.4651581854781877e+00
3.2487677415276930e+00
3.0323381438697004e+00
2.8158725714916586e+00
2.5993742045485222e+00
2.3828462347112183e+00
2.1662918515181175e+00
1.9497142428068912e+00
1.7331165945962481e+00
1.5165021050644829e+00
1.2998739757586941e+00
1.0832353891990050e+00
8.6658961274604740e-01
6.4993963912006036e-01
4.3328930305199032e-01
2.1664000220516164e-01
0.0000000000000000e+00


SCALARS diameter float
LOOKUP_TABLE default
1.0019174720693660e+00
1.0018960373446000e+00
1.0018758026513390e+00
1.0018575590706071e+00
1.0018403948769250e+00
1.0018231988394519e+00
1.0018053684140045e+00
1.0017864755306261e+00
1.0017674364969300e+00
1.0017493287510468e+00
1.0017314508011443e+00
1.0017135410517675e+00
1.0016955041969056e+00
1.0016766458687381e+00
1.0016569601359848e+00
1.0016371103110455e+00
1.0016174683910992e+00
1.0015997603526638e+00
1.0015820578632049e+00
1.0015638555550990e+00
1.0015454842320564e+00
1.0015270704840042e+00
1.0015081800926273e+00
1.0014887669233026e+00
1.0014691695685460e+00
1.0014500202899310e+00
1.0014310806232307e+00
1.0014120950876546e+00
1.0013931003862810e+00
1.0013741309602411e+00
1.0013555679411252e+00
1.0013369841320185e+00
1.0013183652607422e+00
1.0012994330295901e+00
1.0012803623251374e+00
1.0012612814043014e+00
1.0012421889115350e+00
1.0012230842781620e+00
1.0012039677029885e+00
1.0011848389193008e+00
1.0011656884884406e+00
1.0011465235566592e+00
1.0011273445096032e+00
1.0011081522329857e+00
1.0010889470593891e+00
1.0010697292999351e+00
1.0010504993057783e+00
1.0010312573375300e+00
1.0010120037693699e+00
1.0009927383262300e+00
1.0009734617667927e+00
1.0009541739571262e+00
1.0009348751817260e+00
1.0009155659655302e+00
1.0008962463645639e+00
1.0008769164732547e+00
1.0008575765617500e+00
1.0008382270481511e+00
1.0008188678874670e+00
1.0007994993478329e+00
1.0007801218095973e+00
1.0007607353920496e+00
1.0007413401563179e+00
1.0007219364843041e+00
1.0007025246138310e+00
1.0006831046955742e+00
1.0006636769961821e+00
1.0006442416898873e+00
1.0006247989832420e+00
1.0006053491148372e+00
1.0005858923121691e+00
1.0005664287461966e+00
1.0005469586216234e+00
1.0005274821573273e+00
1.0005079996098085e+00
1.0004885111624668e+00
1.0004690171099435e+00
1.0004495175924260e+00
1.0004300128855523e+00
1.0004105031164330e+00
1.0003909884429314e+00
1.0003714691229471e+00
1.0003519453840293e+00
1.0003324175370769e+00
1.0003128857511323e+00
1.0002933500036757e+00
1.0002738105665758e+00
1.0002542676715414e+00
1.0002347219857632e+00
1.0002151733454019e+00
1.0001956221848809e+00
1.0001760676193303e+00
1.0001565109838968e+00
1.0001369520023553e+00
1.0001173913526851e+00
1.0000978290194391e+00
1.0000782652469393e+00
1.0000587002221355e+00
1.0000391342915214e+00
1.0000195676587857e+00
9.9999999968397668e-01


SCALARS iters float
LOOKUP_TABLE default
3.0000000000000000e+00
3.0000000000000000e+00
3.0000000000000000e+00
3.0000000000000000e+00
3.0000000000000000e+00
3.0000000000000000e+00
3.0000000000000000e+00
3.0000000000000000e+00
3.0000000000000000e+00
3.0000000000000000e+00
3.0000000000000000e+00
3.0000000000000000e+00
3.0000000000000000e+00
3.0000000000000000e+00
3.0000000000000000e+00
3.0000000000000000e+00
3.0000000000000000e+00
3.0000000000000000e+00
3.0000000000000000e+00
3.0000000000000000e+00
3.0000000000000000e+00
3.0000000000000000e+00
3.0000000000000000e+00
3.0000000000000000e+00
3.0000000000000000e+00
3.0000000000000000e+00
3.0000000000000000e+00
3.0000000000000000e+00
3.0000000000000000e+00
3.0000000000000000e+00
3.0000000000000000e+00
3.0000000000000000e+00
3.0000000000000000e+00
3.0000000000000000e+00
3.0000000000000000e+00
3.0000000000000000e+00
3.0000000000000000e+00
3.0000000000000000e+00
3.0000000000000000e+00
3.0000000000000000e+00
3.0000000000000000e+00
3.0000000000000000e+00
3.0000000000000000e+00
3.0000000000000000e+00
3.0000000000000000e+00
3.0000000000000000e+00
3.0000000000000000e+00
3.0000000000000000e+00
3.0000000000000000e+00
3.0000000000000000e+00
3.0000000000000000e+00
3.0000000000000000e+00
3.0000000000000000e+00
3.0000000000000000e+00
3.0000000000000000e+00
3.0000000000000000e+00
3.0000000000000000e+00
3.0000000000000000e+00
3.0000000000000000e+00
3.0000000000000000e+00
3.0000000000000000e+00
3.0000000000000000e+00
3.0000000000000000e+00
3.0000000000000000e+00
3.0000000000000000e+00
3.0000000000000000e+00
3.0000000000000000e+00
3.0000000000000000e+00
3.0000000000000000e+00
3.0000000000000000e+00
3.0000000000000000e+00
3.0000000000000000e+00
3.0000000000000000e+00
3.0000000000000000e+00
3.0000000000000000e+00
3.0000000000000000e+00
3.0000000000000000e+00
3.0000000000000000e+00
3.0000000000000000e+00
3.0000000000000000e+00
3.0000000000000000e+00
3.0000000000000000e+00
3.0000000000000000e+00
3.0000000000000000e+00
3.0000000000000000e+00
3.0000000000000000e+00
3.0000000000000000e+00
3.0000000000000000e+00
3.0000000000000000e+00
3.0000000000000000e+00
3.0000000000000000e+00
3.0000000000000000e+00
3.0000000000000000e+00
3.0000000000000000e+00
3.0000000000000000e+00
3.0000000000000000e+00
3.0000000000000000e+00
3.0000000000000000e+00
3.0000000000000000e+00
3.0000000000000000e+00
3.0000000000000000e+00


