# vtk DataFile Version 2.0

ASCII

DATASET UNSTRUCTURED_GRID

POINTS 101 float

0.0000000000000000e+00 0.0000000000000000e+00 0.0000000000000000e+00
1.0000000000000001e-01 0.0000000000000000e+00 0.0000000000000000e+00
2.0000000000000001e-01 0.0000000000000000e+00 0.0000000000000000e+00
3.0000000000000004e-01 0.0000000000000000e+00 0.0000000000000000e+00
4.0000000000000002e-01 0.0000000000000000e+00 0.0000000000000000e+00
5.0000000000000000e-01 0.0000000000000000e+00 0.0000000000000000e+00
6.0000000000000009e-01 0.0000000000000000e+00 0.0000000000000000e+00
7.0000000000000007e-01 0.0000000000000000e+00 0.0000000000000000e+00
8.0000000000000004e-01 0.0000000000000000e+00 0.0000000000000000e+00
9.0000000000000002e-01 0.0000000000000000e+00 0.0000000000000000e+00
1.0000000000000000e+00 0.0000000000000000e+00 0.0000000000000000e+00
1.1000000000000001e+00 0.0000000000000000e+00 0.0000000000000000e+00
1.2000000000000002e+00 0.0000000000000000e+00 0.0000000000000000e+00
1.3000000000000000e+00 0.0000000000000000e+00 0.0000000000000000e+00
1.4000000000000001e+00 0.0000000000000000e+00 0.0000000000000000e+00
1.5000000000000000e+00 0.0000000000000000e+00 0.0000000000000000e+00
1.6000000000000001e+00 0.0000000000000000e+00 0.0000000000000000e+00
1.7000000000000002e+00 0.0000000000000000e+00 0.0000000000000000e+00
1.8000000000000000e+00 0.0000000000000000e+00 0.0000000000000000e+00
1.9000000000000001e+00 0.0000000000000000e+00 0.0000000000000000e+00
2.0000000000000000e+00 0.0000000000000000e+00 0.0000000000000000e+00
2.1000000000000001e+00 0.0000000000000000e+00 0.0000000000000000e+00
2.2000000000000002e+00 0.0000000000000000e+00 0.0000000000000000e+00
2.3000000000000003e+00 0.0000000000000000e+00 0.0000000000000000e+00
2.4000000000000004e+00 0.0000000000000000e+00 0.0000000000000000e+00
2.5000000000000000e+00 0.0000000000000000e+00 0.0000000000000000e+00
2.6000000000000001e+00 0.0000000000000000e+00 0.0000000000000000e+00
2.7000000000000002e+00 0.0000000000000000e+00 0.0000000000000000e+00
2.8000000000000003e+00 0.0000000000000000e+00 0.0000000000000000e+00
2.9000000000000004e+00 0.0000000000000000e+00 0.0000000000000000e+00
3.0000000000000000e+00 0.0000000000000000e+00 0.0000000000000000e+00
3.1000000000000001e+00 0.0000000000000000e+00 0.0000000000000000e+00
3.2000000000000002e+00 0.0000000000000000e+00 0.0000000000000000e+00
3.3000000000000003e+00 0.0000000000000000e+00 0.0000000000000000e+00
3.4000000000000004e+00 0.0000000000000000e+00 0.0000000000000000e+00
3.5000000000000000e+00 0.0000000000000000e+00 0.0000000000000000e+00
3.6000000000000001e+00 0.0000000000000000e+00 0.0000000000000000e+00
3.7000000000000002e+00 0.0000000000000000e+00 0.0000000000000000e+00
3.8000000000000003e+00 0.0000000000000000e+00 0.0000000000000000e+00
3.9000000000000004e+00 0.0000000000000000e+00 0.0000000000000000e+00
4.0000000000000000e+00 0.0000000000000000e+00 0.0000000000000000e+00
4.1000000000000005e+00 0.0000000000000000e+00 0.0000000000000000e+00
4.2000000000000002e+00 0.0000000000000000e+00 0.0000000000000000e+00
4.2999999999999998e+00 0.0000000000000000e+00 0.0000000000000000e+00
4.4000000000000004e+00 0.0000000000000000e+00 0.0000000000000000e+00
4.5000000000000000e+00 0.0000000000000000e+00 0.0000000000000000e+00
4.6000000000000005e+00 0.0000000000000000e+00 0.0000000000000000e+00
4.7000000000000002e+00 0.0000000000000000e+00 0.0000000000000000e+00
4.8000000000000007e+00 0.0000000000000000e+00 0.0000000000000000e+00
4.9000000000000004e+00 0.0000000000000000e+00 0.0000000000000000e+00
5.0000000000000000e+00 0.0000000000000000e+00 0.0000000000000000e+00
5.1000000000000005e+00 0.0000000000000000e+00 0.0000000000000000e+00
5.2000000000000002e+00 0.0000000000000000e+00 0.0000000000000000e+00
5.3000000000000007e+00 0.0000000000000000e+00 0.0000000000000000e+00
5.4000000000000004e+00 0.0000000000000000e+00 0.0000000000000000e+00
5.5000000000000000e+00 0.0000000000000000e+00 0.0000000000000000e+00
5.6000000000000005e+00 0.0000000000000000e+00 0.0000000000000000e+00
5.7000000000000002e+00 0.0000000000000000e+00 0.0000000000000000e+00
5.8000000000000007e+00 0.0000000000000000e+00 0.0000000000000000e+00
5.9000000000000004e+00 0.0000000000000000e+00 0.0000000000000000e+00
6.0000000000000000e+00 0.0000000000000000e+00 0.0000000000000000e+00
6.1000000000000005e+00 0.0000000000000000e+00 0.0000000000000000e+00
6.2000000000000002e+00 0.0000000000000000e+00 0.0000000000000000e+00
6.3000000000000007e+00 0.0000000000000000e+00 0.0000000000000000e+00
6.4000000000000004e+00 0.0000000000000000e+00 0.0000000000000000e+00
6.5000000000000000e+00 0.0000000000000000e+00 0.0000000000000000e+00
6.6000000000000005e+00 0.0000000000000000e+00 0.0000000000000000e+00
6.7000000000000002e+00 0.0000000000000000e+00 0.0000000000000000e+00
6.8000000000000007e+00 0.0000000000000000e+00 0.0000000000000000e+00
6.9000000000000004e+00 0.0000000000000000e+00 0.0000000000000000e+00
7.0000000000000000e+00 0.0000000000000000e+00 0.0000000000000000e+00
7.1000000000000005e+00 0.0000000000000000e+00 0.0000000000000000e+00
7.2000000000000002e+00 0.0000000000000000e+00 0.0000000000000000e+00
7.3000000000000007e+00 0.0000000000000000e+00 0.0000000000000000e+00
7.4000000000000004e+00 0.0000000000000000e+00 0.0000000000000000e+00
7.5000000000000000e+00 0.0000000000000000e+00 0.0000000000000000e+00
7.6000000000000005e+00 0.0000000000000000e+00 0.0000000000000000e+00
7.7000000000000002e+00 0.0000000000000000e+00 0.0000000000000000e+00
7.8000000000000007e+00 0.0000000000000000e+00 0.0000000000000000e+00
7.9000000000000004e+00 0.0000000000000000e+00 0.0000000000000000e+00
8.0000000000000000e+00 0.0000000000000000e+00 0.0000000000000000e+00
8.0999999999999996e+00 0.0000000000000000e+00 0.0000000000000000e+00
8.2000000000000011e+00 0.0000000000000000e+00 0.0000000000000000e+00
8.3000000000000007e+00 0.0000000000000000e+00 0.0000000000000000e+00
8.4000000000000004e+00 0.0000000000000000e+00 0.0000000000000000e+00
8.5000000000000000e+00 0.0000000000000000e+00 0.0000000000000000e+00
8.5999999999999996e+00 0.0000000000000000e+00 0.0000000000000000e+00
8.7000000000000011e+00 0.0000000000000000e+00 0.0000000000000000e+00
8.8000000000000007e+00 0.0000000000000000e+00 0.0000000000000000e+00
8.9000000000000004e+00 0.0000000000000000e+00 0.0000000000000000e+00
9.0000000000000000e+00 0.0000000000000000e+00 0.0000000000000000e+00
9.0999999999999996e+00 0.0000000000000000e+00 0.0000000000000000e+00
9.2000000000000011e+00 0.0000000000000000e+00 0.0000000000000000e+00
9.3000000000000007e+00 0.0000000000000000e+00 0.0000000000000000e+00
9.4000000000000004e+00 0.0000000000000000e+00 0.0000000000000000e+00
9.5000000000000000e+00 0.0000000000000000e+00 0.0000000000000000e+00
9.6000000000000014e+00 0.0000000000000000e+00 0.0000000000000000e+00
9.7000000000000011e+00 0.0000000000000000e+00 0.0000000000000000e+00
9.8000000000000007e+00 0.0000000000000000e+00 0.0000000000000000e+00
9.9000000000000004e+00 0.0000000000000000e+00 0.0000000000000000e+00
1.0000000000000000e+01 0.0000000000000000e+00 0.0000000000000000e+00

POINT_DATA 101

VECTORS velocity float
4.8810824287787327e+00 0.0000000000000000e+00 0.0000000000000000e+00
4.8816602288195812e+00 0.0000000000000000e+00 0.0000000000000000e+00
4.8822601769947980e+00 0.0000000000000000e+00 0.0000000000000000e+00
4.8828690673475217e+00 0.0000000000000000e+00 0.0000000000000000e+00
4.8834786666476946e+00 0.0000000000000000e+00 0.0000000000000000e+00
4.8840870827645064e+00 0.0000000000000000e+00 0.0000000000000000e+00
4.8846970746152323e+00 0.0000000000000000e+00 0.0000000000000000e+00
4.8853038263497659e+00 0.0000000000000000e+00 0.0000000000000000e+00
4.8859009266477971e+00 0.0000000000000000e+00 0.0000000000000000e+00
4.8864879051093428e+00 0.0000000000000000e+00 0.0000000000000000e+00
4.8870659360147526e+00 0.0000000000000000e+00 0.0000000000000000e+00
4.8876357569814965e+00 0.0000000000000000e+00 0.0000000000000000e+00
4.8881993920210922e+00 0.0000000000000000e+00 0.0000000000000000e+00
4.8887602000193686e+00 0.0000000000000000e+00 0.0000000000000000e+00
4.8893176223104549e+00 0.0000000000000000e+00 0.0000000000000000e+00
4.8898698739536606e+00 0.0000000000000000e+00 0.0000000000000000e+00
4.8904131812346998e+00 0.0000000000000000e+00 0.0000000000000000e+00
4.8909457850739573e+00 0.0000000000000000e+00 0.0000000000000000e+00
4.8914716181232727e+00 0.0000000000000000e+00 0.0000000000000000e+00
4.8919924576944602e+00 0.0000000000000000e+00 0.0000000000000000e+00
4.8925070363122636e+00 0.0000000000000000e+00 0.0000000000000000e+00
4.8930143492450728e+00 0.0000000000000000e+00 0.0000000000000000e+00
4.8935134404035816e+00 0.0000000000000000e+00 0.0000000000000000e+00
4.8940038997724589e+00 0.0000000000000000e+00 0.0000000000000000e+00
4.8944915950340562e+00 0.0000000000000000e+00 0.0000000000000000e+00
4.8949755827703996e+00 0.0000000000000000e+00 0.0000000000000000e+00
4.8954505076643828e+00 0.0000000000000000e+00 0.0000000000000000e+00
4.8959178307599887e+00 0.0000000000000000e+00 0.0000000000000000e+00
4.8963780193071935e+00 0.0000000000000000e+00 0.0000000000000000e+00
4.8968305813855499e+00 0.0000000000000000e+00 0.0000000000000000e+00
4.8972752430191298e+00 0.0000000000000000e+00 0.0000000000000000e+00
4.8977124905602381e+00 0.0000000000000000e+00 0.0000000000000000e+00
4.8981429064723399e+00 0.0000000000000000e+00 0.0000000000000000e+00
4.8985669859178902e+00 0.0000000000000000e+00 0.0000000000000000e+00
4.8989844716303006e+00 0.0000000000000000e+00 0.0000000000000000e+00
4.8993951667706108e+00 0.0000000000000000e+00 0.0000000000000000e+00
4.8997989635201806e+00 0.0000000000000000e+00 0.0000000000000000e+00
4.9001958496769271e+00 0.0000000000000000e+00 0.0000000000000000e+00
4.9005856933660858e+00 0.0000000000000000e+00 0.0000000000000000e+00
4.9009687750995514e+00 0.0000000000000000e+00 0.0000000000000000e+00
4.9013452586578410e+00 0.0000000000000000e+00 0.0000000000000000e+00
4.9017148585638202e+00 0.0000000000000000e+00 0.0000000000000000e+00
4.9020774732882435e+00 0.0000000000000000e+00 0.0000000000000000e+00
4.9024330462075918e+00 0.0000000000000000e+00 0.0000000000000000e+00
4.9027815436266948e+00 0.0000000000000000e+00 0.0000000000000000e+00
4.9031229436671460e+00 0.0000000000000000e+00 0.0000000000000000e+00
4.9034572316649285e+00 0.0000000000000000e+00 0.0000000000000000e+00
4.9037843977818811e+00 0.0000000000000000e+00 0.0000000000000000e+00
4.9041044342912237e+00 0.0000000000000000e+00 0.0000000000000000e+00
4.9044173341493096e+00 0.0000000000000000e+00 0.0000000000000000e+00
4.9047230908263844e+00 0.0000000000000000e+00 0.0000000000000000e+00
4.9050216985146173e+00 0.0000000000000000e+00 0.0000000000000000e+00
4.9053131516006570e+00 0.0000000000000000e+00 0.0000000000000000e+00
4.9055974450674720e+00 0.0000000000000000e+00 0.0000000000000000e+00
4.9058745740908076e+00 0.0000000000000000e+00 0.0000000000000000e+00
4.9061445335071738e+00 0.0000000000000000e+00 0.0000000000000000e+00
4.9064073178586716e+00 0.0000000000000000e+00 0.0000000000000000e+00
4.9066629225902982e+00 0.0000000000000000e+00 0.0000000000000000e+00
4.9069113437831344e+00 0.0000000000000000e+00 0.0000000000000000e+00
4.9071525769167881e+00 0.0000000000000000e+00 0.0000000000000000e+00
4.9073866176939474e+00 0.0000000000000000e+00 0.0000000000000000e+00
4.9076134624788530e+00 0.0000000000000000e+00 0.0000000000000000e+00
4.9078331074512853e+00 0.0000000000000000e+00 0.0000000000000000e+00
4.9080455483571646e+00 0.0000000000000000e+00 0.0000000000000000e+00
4.9082507813925211e+00 0.0000000000000000e+00 0.0000000000000000e+00
4.9084488029655242e+00 0.0000000000000000e+00 0.0000000000000000e+00
4.9086396095625906e+00 0.0000000000000000e+00 0.0000000000000000e+00
4.9088231979340096e+00 0.0000000000000000e+00 0.0000000000000000e+00
4.9089995649621496e+00 0.0000000000000000e+00 0.0000000000000000e+00
4.9091687076267903e+00 0.0000000000000000e+00 0.0000000000000000e+00
4.9093306230101819e+00 0.0000000000000000e+00 0.0000000000000000e+00
4.9094853084206971e+00 0.0000000000000000e+00 0.0000000000000000e+00
4.9096327612601423e+00 0.0000000000000000e+00 0.0000000000000000e+00
4.9097729790549121e+00 0.0000000000000000e+00 0.0000000000000000e+00
4.9099059596650916e+00 0.0000000000000000e+00 0.0000000000000000e+00
4.9100317005493945e+00 0.0000000000000000e+00 0.0000000000000000e+00
4.9101501999396593e+00 0.0000000000000000e+00 0.0000000000000000e+00
4.9102614554663209e+00 0.0000000000000000e+00 0.0000000000000000e+00
4.9103654658724487e+00 0.0000000000000000e+00 0.0000000000000000e+00
4.9104622303816265e+00 0.0000000000000000e+00 0.0000000000000000e+00
4.9105517464885180e+00 0.0000000000000000e+00 0.0000000000000000e+00
4.9106340128446488e+00 0.0000000000000000e+00 0.0000000000000000e+00
4.9107090281447592e+00 0.0000000000000000e+00 0.0000000000000000e+00
4.9107767922296945e+00 0.0000000000000000e+00 0.0000000000000000e+00
4.9108373032504131e+00 0.0000000000000000e+00 0.0000000000000000e+00
4.9108905599009045e+00 0.0000000000000000e+00 0.0000000000000000e+00
4.9109365611667517e+00 0.0000000000000000e+00 0.0000000000000000e+00
4.9109753053115988e+00 0.0000000000000000e+00 0.0000000000000000e+00
4.9110067939549733e+00 0.0000000000000000e+00 0.0000000000000000e+00
4.9110310262656114e+00 0.0000000000000000e+00 0.0000000000000000e+00
4.9110480050513257e+00 0.0000000000000000e+00 0.0000000000000000e+00
4.9110577259742190e+00 0.0000000000000000e+00 0.0000000000000000e+00
4.9110601944944241e+00 0.0000000000000000e+00 0.0000000000000000e+00
4.9110553959718324e+00 0.0000000000000000e+00 0.0000000000000000e+00
4.9110433714963184e+00 0.0000000000000000e+00 0.0000000000000000e+00
4.9110240180814042e+00 0.0000000000000000e+00 0.0000000000000000e+00
4.9109975966654771e+00 0.0000000000000000e+00 0.0000000000000000e+00
4.9109634546650947e+00 0.0000000000000000e+00 0.0000000000000000e+00
4.9109232284909359e+00 0.0000000000000000e+00 0.0000000000000000e+00
4.9108728386156475e+00 0.0000000000000000e+00 0.0000000000000000e+00
4.9108224487403600e+00 0.0000000000000000e+00 0.0000000000000000e+00


SCALARS pressure float
LOOKUP_TABLE default
-1.5058556957695931e+01
-1.4916150084113468e+01
-1.4773743210531006e+01
-1.4631244627932203e+01
-1.4488597102715916e+01
-1.4345764688958344e+01
-1.4202738228738658e+01
-1.4059531277546142e+01
-1.3916128060536964e+01
-1.3772499959697402e+01
-1.3628641483365943e+01
-1.3484557822615606e+01
-1.3340254142612475e+01
-1.3195741214401238e+01
-1.3051036458879256e+01
-1.2906142061472394e+01
-1.2761052609344841e+01
-1.2615752764354195e+01
-1.2470233056880749e+01
-1.2324509477430219e+01
-1.2178594170318453e+01
-1.2032485849149163e+01
-1.1886181785410580e+01
-1.1739678664598024e+01
-1.1592974599215609e+01
-1.1446094507694019e+01
-1.1299040564282187e+01
-1.1151792389574336e+01
-1.1004353874989505e+01
-1.0856728858757450e+01
-1.0708917386974893e+01
-1.0560919836682061e+01
-1.0412739723071113e+01
-1.0264381492076842e+01
-1.0115849271946509e+01
-9.9671440023728817e+00
-9.8182663769526535e+00
-9.6692174248278526e+00
-9.5199986166689960e+00
-9.3706110380365342e+00
-9.2210572934403334e+00
-9.0713396828963333e+00
-8.9214586872085526e+00
-8.7714152587725636e+00
-8.6212106228311374e+00
-8.4708461494318179e+00
-8.3203232833357994e+00
-8.1696435125650435e+00
-8.0188083541499751e+00
-7.8678193398298175e+00
-7.7166780073603318e+00
-7.5653858981838127e+00
-7.4139445579595140e+00
-7.2623555345883792e+00
-7.1106203797249714e+00
-6.9587406472429212e+00
-6.8067178906786419e+00
-6.6545536629774373e+00
-6.5022495213317555e+00
-6.3498070271027496e+00
-6.1972277406142267e+00
-6.0445132237010606e+00
-5.8916650421215060e+00
-5.7386847624458266e+00
-5.5855739502496418e+00
-5.4323341735050912e+00
-5.2789670022194510e+00
-5.1254740078257957e+00
-4.9718567638414504e+00
-4.8181168454535879e+00
-4.6642558293325838e+00
-4.5102752936378367e+00
-4.3561768185881959e+00
-4.2019619860597865e+00
-4.0476323795514322e+00
-3.8931895851375571e+00
-3.7386351883947051e+00
-3.5839707787956203e+00
-3.4291979447702712e+00
-3.2743182801250090e+00
-3.1193333829719836e+00
-2.9642448454648274e+00
-2.8090542643513974e+00
-2.6537632382163969e+00
-2.4983733717733663e+00
-2.3428862644819670e+00
-2.1873035180098892e+00
-2.0316267360069267e+00
-1.8758575203724719e+00
-1.7199974887087146e+00
-1.5640482515643646e+00
-1.4080114340763508e+00
-1.2518886350993901e+00
-1.0956814901220686e+00
-9.3939156033411697e-01
-7.8302062110245474e-01
-6.2656990317225336e-01
-4.7004201111231553e-01
-3.1343611803321503e-01
-1.5675996537511278e-01
0.0000000000000000e+00


SCALARS diameter float
LOOKUP_TABLE default
9.9863663078840825e-01
9.9865388116570741e-01
9.9866824907889518e-01
9.9868175301789341e-01
9.9869498830535874e-01
9.9870832020571310e-01
9.9871962334399722e-01
9.9873025363796408e-01
9.9874280225876788e-01
9.9875644679853359e-01
9.9877056487423688e-01
9.9878478306316554e-01
9.9879889982132897e-01
9.9881171712684902e-01
9.9882357030086011e-01
9.9883546136955736e-01
9.9884795317338526e-01
9.9886211837066674e-01
9.9887588885740208e-01
9.9888877696247380e-01
9.9890160565658881e-01
9.9891482809683907e-01
9.9892845511111505e-01
9.9894270319520895e-01
9.9895597349964460e-01
9.9896725838409772e-01
9.9898038997744498e-01
9.9899357691608204e-01
9.9900678842511836e-01
9.9902006029770463e-01
9.9903373364474113e-01
9.9904743521176831e-01
9.9906113159055299e-01
9.9907459427321976e-01
9.9908800783753771e-01
9.9910144483611674e-01
9.9911490636082190e-01
9.9912839307136270e-01
9.9914190464825203e-01
9.9915543029276266e-01
9.9916879635625766e-01
9.9918218264520020e-01
9.9919559098952926e-01
9.9920902094285735e-01
9.9922247228023953e-01
9.9923594500288859e-01
9.9924943902935981e-01
9.9926295367260809e-01
9.9927648856817997e-01
9.9929004337218374e-01
9.9930361797653100e-01
9.9931721193648049e-01
9.9933082498513970e-01
9.9934445668119087e-01
9.9935810661074986e-01
9.9937177451815740e-01
9.9938546028851838e-01
9.9939916361047509e-01
9.9941288379924942e-01
9.9942662063676624e-01
9.9944037385949924e-01
9.9945414297692325e-01
9.9946792757198666e-01
9.9948172754070286e-01
9.9949554257049189e-01
9.9950937227591885e-01
9.9952321635982577e-01
9.9953707445950668e-01
9.9955094620751284e-01
9.9956483127620877e-01
9.9957872932194236e-01
9.9959264001338377e-01
9.9960656296561345e-01
9.9962049790280683e-01
9.9963444438846649e-01
9.9964840216733986e-01
9.9966237095589705e-01
9.9967635021620116e-01
9.9969033996284318e-01
9.9970433894678168e-01
9.9971834774769142e-01
9.9973236570814261e-01
9.9974639261463194e-01
9.9976042780975249e-01
9.9977447100354611e-01
9.9978852251206840e-01
9.9980258137762190e-01
9.9981664817246374e-01
9.9983072143456986e-01
9.9984480110122864e-01
9.9985888649179222e-01
9.9987297716564427e-01
9.9988707420500778e-01
9.9990117572683868e-01
9.9991528211534975e-01
9.9992939270783232e-01
9.9994350740130411e-01
9.9995762578571590e-01
9.9997174733404048e-01
9.9998587140740958e-01
9.9999999875055257e-01


SCALARS iters float
LOOKUP_TABLE default
3.0000000000000000e+00
3.0000000000000000e+00
3.0000000000000000e+00
3.0000000000000000e+00
3.0000000000000000e+00
3.0000000000000000e+00
3.0000000000000000e+00
3.0000000000000000e+00
3.0000000000000000e+00
3.0000000000000000e+00
3.0000000000000000e+00
3.0000000000000000e+00
3.0000000000000000e+00
3.0000000000000000e+00
3.0000000000000000e+00
3.0000000000000000e+00
3.0000000000000000e+00
3.0000000000000000e+00
3.0000000000000000e+00
3.0000000000000000e+00
3.0000000000000000e+00
3.0000000000000000e+00
3.0000000000000000e+00
3.0000000000000000e+00
3.0000000000000000e+00
3.0000000000000000e+00
3.0000000000000000e+00
3.0000000000000000e+00
3.0000000000000000e+00
3.0000000000000000e+00
3.0000000000000000e+00
3.0000000000000000e+00
3.0000000000000000e+00
3.0000000000000000e+00
3.0000000000000000e+00
3.0000000000000000e+00
3.0000000000000000e+00
3.0000000000000000e+00
3.0000000000000000e+00
3.0000000000000000e+00
3.0000000000000000e+00
3.0000000000000000e+00
3.0000000000000000e+00
3.0000000000000000e+00
3.0000000000000000e+00
3.0000000000000000e+00
3.0000000000000000e+00
3.0000000000000000e+00
3.0000000000000000e+00
3.0000000000000000e+00
3.0000000000000000e+00
3.0000000000000000e+00
3.0000000000000000e+00
3.0000000000000000e+00
3.0000000000000000e+00
3.0000000000000000e+00
3.0000000000000000e+00
3.0000000000000000e+00
3.0000000000000000e+00
3.0000000000000000e+00
3.0000000000000000e+00
3.0000000000000000e+00
3.0000000000000000e+00
3.0000000000000000e+00
3.0000000000000000e+00
3.0000000000000000e+00
3.0000000000000000e+00
3.0000000000000000e+00
3.0000000000000000e+00
3.0000000000000000e+00
3.0000000000000000e+00
3.0000000000000000e+00
3.0000000000000000e+00
3.0000000000000000e+00
3.0000000000000000e+00
3.0000000000000000e+00
3.0000000000000000e+00
3.0000000000000000e+00
3.0000000000000000e+00
3.0000000000000000e+00
3.0000000000000000e+00
3.0000000000000000e+00
3.0000000000000000e+00
3.0000000000000000e+00
3.0000000000000000e+00
3.0000000000000000e+00
3.0000000000000000e+00
3.0000000000000000e+00
3.0000000000000000e+00
3.0000000000000000e+00
3.0000000000000000e+00
3.0000000000000000e+00
3.0000000000000000e+00
3.0000000000000000e+00
3.0000000000000000e+00
3.0000000000000000e+00
3.0000000000000000e+00
3.0000000000000000e+00
3.0000000000000000e+00
3.0000000000000000e+00
3.0000000000000000e+00


