# vtk DataFile Version 2.0

ASCII

DATASET UNSTRUCTURED_GRID

POINTS 101 float

0.0000000000000000e+00 0.0000000000000000e+00 0.0000000000000000e+00
1.0000000000000001e-01 0.0000000000000000e+00 0.0000000000000000e+00
2.0000000000000001e-01 0.0000000000000000e+00 0.0000000000000000e+00
3.0000000000000004e-01 0.0000000000000000e+00 0.0000000000000000e+00
4.0000000000000002e-01 0.0000000000000000e+00 0.0000000000000000e+00
5.0000000000000000e-01 0.0000000000000000e+00 0.0000000000000000e+00
6.0000000000000009e-01 0.0000000000000000e+00 0.0000000000000000e+00
7.0000000000000007e-01 0.0000000000000000e+00 0.0000000000000000e+00
8.0000000000000004e-01 0.0000000000000000e+00 0.0000000000000000e+00
9.0000000000000002e-01 0.0000000000000000e+00 0.0000000000000000e+00
1.0000000000000000e+00 0.0000000000000000e+00 0.0000000000000000e+00
1.1000000000000001e+00 0.0000000000000000e+00 0.0000000000000000e+00
1.2000000000000002e+00 0.0000000000000000e+00 0.0000000000000000e+00
1.3000000000000000e+00 0.0000000000000000e+00 0.0000000000000000e+00
1.4000000000000001e+00 0.0000000000000000e+00 0.0000000000000000e+00
1.5000000000000000e+00 0.0000000000000000e+00 0.0000000000000000e+00
1.6000000000000001e+00 0.0000000000000000e+00 0.0000000000000000e+00
1.7000000000000002e+00 0.0000000000000000e+00 0.0000000000000000e+00
1.8000000000000000e+00 0.0000000000000000e+00 0.0000000000000000e+00
1.9000000000000001e+00 0.0000000000000000e+00 0.0000000000000000e+00
2.0000000000000000e+00 0.0000000000000000e+00 0.0000000000000000e+00
2.1000000000000001e+00 0.0000000000000000e+00 0.0000000000000000e+00
2.2000000000000002e+00 0.0000000000000000e+00 0.0000000000000000e+00
2.3000000000000003e+00 0.0000000000000000e+00 0.0000000000000000e+00
2.4000000000000004e+00 0.0000000000000000e+00 0.0000000000000000e+00
2.5000000000000000e+00 0.0000000000000000e+00 0.0000000000000000e+00
2.6000000000000001e+00 0.0000000000000000e+00 0.0000000000000000e+00
2.7000000000000002e+00 0.0000000000000000e+00 0.0000000000000000e+00
2.8000000000000003e+00 0.0000000000000000e+00 0.0000000000000000e+00
2.9000000000000004e+00 0.0000000000000000e+00 0.0000000000000000e+00
3.0000000000000000e+00 0.0000000000000000e+00 0.0000000000000000e+00
3.1000000000000001e+00 0.0000000000000000e+00 0.0000000000000000e+00
3.2000000000000002e+00 0.0000000000000000e+00 0.0000000000000000e+00
3.3000000000000003e+00 0.0000000000000000e+00 0.0000000000000000e+00
3.4000000000000004e+00 0.0000000000000000e+00 0.0000000000000000e+00
3.5000000000000000e+00 0.0000000000000000e+00 0.0000000000000000e+00
3.6000000000000001e+00 0.0000000000000000e+00 0.0000000000000000e+00
3.7000000000000002e+00 0.0000000000000000e+00 0.0000000000000000e+00
3.8000000000000003e+00 0.0000000000000000e+00 0.0000000000000000e+00
3.9000000000000004e+00 0.0000000000000000e+00 0.0000000000000000e+00
4.0000000000000000e+00 0.0000000000000000e+00 0.0000000000000000e+00
4.1000000000000005e+00 0.0000000000000000e+00 0.0000000000000000e+00
4.2000000000000002e+00 0.0000000000000000e+00 0.0000000000000000e+00
4.2999999999999998e+00 0.0000000000000000e+00 0.0000000000000000e+00
4.4000000000000004e+00 0.0000000000000000e+00 0.0000000000000000e+00
4.5000000000000000e+00 0.0000000000000000e+00 0.0000000000000000e+00
4.6000000000000005e+00 0.0000000000000000e+00 0.0000000000000000e+00
4.7000000000000002e+00 0.0000000000000000e+00 0.0000000000000000e+00
4.8000000000000007e+00 0.0000000000000000e+00 0.0000000000000000e+00
4.9000000000000004e+00 0.0000000000000000e+00 0.0000000000000000e+00
5.0000000000000000e+00 0.0000000000000000e+00 0.0000000000000000e+00
5.1000000000000005e+00 0.0000000000000000e+00 0.0000000000000000e+00
5.2000000000000002e+00 0.0000000000000000e+00 0.0000000000000000e+00
5.3000000000000007e+00 0.0000000000000000e+00 0.0000000000000000e+00
5.4000000000000004e+00 0.0000000000000000e+00 0.0000000000000000e+00
5.5000000000000000e+00 0.0000000000000000e+00 0.0000000000000000e+00
5.6000000000000005e+00 0.0000000000000000e+00 0.0000000000000000e+00
5.7000000000000002e+00 0.0000000000000000e+00 0.0000000000000000e+00
5.8000000000000007e+00 0.0000000000000000e+00 0.0000000000000000e+00
5.9000000000000004e+00 0.0000000000000000e+00 0.0000000000000000e+00
6.0000000000000000e+00 0.0000000000000000e+00 0.0000000000000000e+00
6.1000000000000005e+00 0.0000000000000000e+00 0.0000000000000000e+00
6.2000000000000002e+00 0.0000000000000000e+00 0.0000000000000000e+00
6.3000000000000007e+00 0.0000000000000000e+00 0.0000000000000000e+00
6.4000000000000004e+00 0.0000000000000000e+00 0.0000000000000000e+00
6.5000000000000000e+00 0.0000000000000000e+00 0.0000000000000000e+00
6.6000000000000005e+00 0.0000000000000000e+00 0.0000000000000000e+00
6.7000000000000002e+00 0.0000000000000000e+00 0.0000000000000000e+00
6.8000000000000007e+00 0.0000000000000000e+00 0.0000000000000000e+00
6.9000000000000004e+00 0.0000000000000000e+00 0.0000000000000000e+00
7.0000000000000000e+00 0.0000000000000000e+00 0.0000000000000000e+00
7.1000000000000005e+00 0.0000000000000000e+00 0.0000000000000000e+00
7.2000000000000002e+00 0.0000000000000000e+00 0.0000000000000000e+00
7.3000000000000007e+00 0.0000000000000000e+00 0.0000000000000000e+00
7.4000000000000004e+00 0.0000000000000000e+00 0.0000000000000000e+00
7.5000000000000000e+00 0.0000000000000000e+00 0.0000000000000000e+00
7.6000000000000005e+00 0.0000000000000000e+00 0.0000000000000000e+00
7.7000000000000002e+00 0.0000000000000000e+00 0.0000000000000000e+00
7.8000000000000007e+00 0.0000000000000000e+00 0.0000000000000000e+00
7.9000000000000004e+00 0.0000000000000000e+00 0.0000000000000000e+00
8.0000000000000000e+00 0.0000000000000000e+00 0.0000000000000000e+00
8.0999999999999996e+00 0.0000000000000000e+00 0.0000000000000000e+00
8.2000000000000011e+00 0.0000000000000000e+00 0.0000000000000000e+00
8.3000000000000007e+00 0.0000000000000000e+00 0.0000000000000000e+00
8.4000000000000004e+00 0.0000000000000000e+00 0.0000000000000000e+00
8.5000000000000000e+00 0.0000000000000000e+00 0.0000000000000000e+00
8.5999999999999996e+00 0.0000000000000000e+00 0.0000000000000000e+00
8.7000000000000011e+00 0.0000000000000000e+00 0.0000000000000000e+00
8.8000000000000007e+00 0.0000000000000000e+00 0.0000000000000000e+00
8.9000000000000004e+00 0.0000000000000000e+00 0.0000000000000000e+00
9.0000000000000000e+00 0.0000000000000000e+00 0.0000000000000000e+00
9.0999999999999996e+00 0.0000000000000000e+00 0.0000000000000000e+00
9.2000000000000011e+00 0.0000000000000000e+00 0.0000000000000000e+00
9.3000000000000007e+00 0.0000000000000000e+00 0.0000000000000000e+00
9.4000000000000004e+00 0.0000000000000000e+00 0.0000000000000000e+00
9.5000000000000000e+00 0.0000000000000000e+00 0.0000000000000000e+00
9.6000000000000014e+00 0.0000000000000000e+00 0.0000000000000000e+00
9.7000000000000011e+00 0.0000000000000000e+00 0.0000000000000000e+00
9.8000000000000007e+00 0.0000000000000000e+00 0.0000000000000000e+00
9.9000000000000004e+00 0.0000000000000000e+00 0.0000000000000000e+00
1.0000000000000000e+01 0.0000000000000000e+00 0.0000000000000000e+00

POINT_DATA 101

VECTORS velocity float
4.4084829100076401e+00 0.0000000000000000e+00 0.0000000000000000e+00
4.4080152071673417e+00 0.0000000000000000e+00 0.0000000000000000e+00
4.4075609997829837e+00 0.0000000000000000e+00 0.0000000000000000e+00
4.4071168347113492e+00 0.0000000000000000e+00 0.0000000000000000e+00
4.4066798875481537e+00 0.0000000000000000e+00 0.0000000000000000e+00
4.4062494918739592e+00 0.0000000000000000e+00 0.0000000000000000e+00
4.4058262898656677e+00 0.0000000000000000e+00 0.0000000000000000e+00
4.4054121064152927e+00 0.0000000000000000e+00 0.0000000000000000e+00
4.4050037899344936e+00 0.0000000000000000e+00 0.0000000000000000e+00
4.4045943396203686e+00 0.0000000000000000e+00 0.0000000000000000e+00
4.4041852561383035e+00 0.0000000000000000e+00 0.0000000000000000e+00
4.4037786233818155e+00 0.0000000000000000e+00 0.0000000000000000e+00
4.4033740203079530e+00 0.0000000000000000e+00 0.0000000000000000e+00
4.4029723123016327e+00 0.0000000000000000e+00 0.0000000000000000e+00
4.4025757048659324e+00 0.0000000000000000e+00 0.0000000000000000e+00
4.4021832334682909e+00 0.0000000000000000e+00 0.0000000000000000e+00
4.4017957136085410e+00 0.0000000000000000e+00 0.0000000000000000e+00
4.4014147477819270e+00 0.0000000000000000e+00 0.0000000000000000e+00
4.4010366039814688e+00 0.0000000000000000e+00 0.0000000000000000e+00
4.4006587541619249e+00 0.0000000000000000e+00 0.0000000000000000e+00
4.4002822075899202e+00 0.0000000000000000e+00 0.0000000000000000e+00
4.3999082434791887e+00 0.0000000000000000e+00 0.0000000000000000e+00
4.3995382063816182e+00 0.0000000000000000e+00 0.0000000000000000e+00
4.3991744637611578e+00 0.0000000000000000e+00 0.0000000000000000e+00
4.3988177191825599e+00 0.0000000000000000e+00 0.0000000000000000e+00
4.3984644316858388e+00 0.0000000000000000e+00 0.0000000000000000e+00
4.3981137406601354e+00 0.0000000000000000e+00 0.0000000000000000e+00
4.3977664482031908e+00 0.0000000000000000e+00 0.0000000000000000e+00
4.3974229261792219e+00 0.0000000000000000e+00 0.0000000000000000e+00
4.3970825247654899e+00 0.0000000000000000e+00 0.0000000000000000e+00
4.3967447264215327e+00 0.0000000000000000e+00 0.0000000000000000e+00
4.3964099963828867e+00 0.0000000000000000e+00 0.0000000000000000e+00
4.3960788467496243e+00 0.0000000000000000e+00 0.0000000000000000e+00
4.3957523780246675e+00 0.0000000000000000e+00 0.0000000000000000e+00
4.3954305069550843e+00 0.0000000000000000e+00 0.0000000000000000e+00
4.3951128251366596e+00 0.0000000000000000e+00 0.0000000000000000e+00
4.3947992086004870e+00 0.0000000000000000e+00 0.0000000000000000e+00
4.3944895638488601e+00 0.0000000000000000e+00 0.0000000000000000e+00
4.3941839584081510e+00 0.0000000000000000e+00 0.0000000000000000e+00
4.3938820868260082e+00 0.0000000000000000e+00 0.0000000000000000e+00
4.3935836607866623e+00 0.0000000000000000e+00 0.0000000000000000e+00
4.3932889750581356e+00 0.0000000000000000e+00 0.0000000000000000e+00
4.3929981245592051e+00 0.0000000000000000e+00 0.0000000000000000e+00
4.3927111579904086e+00 0.0000000000000000e+00 0.0000000000000000e+00
4.3924281031624659e+00 0.0000000000000000e+00 0.0000000000000000e+00
4.3921489811192487e+00 0.0000000000000000e+00 0.0000000000000000e+00
4.3918738071593477e+00 0.0000000000000000e+00 0.0000000000000000e+00
4.3916025900620577e+00 0.0000000000000000e+00 0.0000000000000000e+00
4.3913353392017083e+00 0.0000000000000000e+00 0.0000000000000000e+00
4.3910720645330068e+00 0.0000000000000000e+00 0.0000000000000000e+00
4.3908127760159985e+00 0.0000000000000000e+00 0.0000000000000000e+00
4.3905574827297587e+00 0.0000000000000000e+00 0.0000000000000000e+00
4.3903061938206980e+00 0.0000000000000000e+00 0.0000000000000000e+00
4.3900589176793590e+00 0.0000000000000000e+00 0.0000000000000000e+00
4.3898156627360230e+00 0.0000000000000000e+00 0.0000000000000000e+00
4.3895764373738055e+00 0.0000000000000000e+00 0.0000000000000000e+00
4.3893412492066171e+00 0.0000000000000000e+00 0.0000000000000000e+00
4.3891101066977569e+00 0.0000000000000000e+00 0.0000000000000000e+00
4.3888830181735834e+00 0.0000000000000000e+00 0.0000000000000000e+00
4.3886599914756967e+00 0.0000000000000000e+00 0.0000000000000000e+00
4.3884410341649565e+00 0.0000000000000000e+00 0.0000000000000000e+00
4.3882261529661557e+00 0.0000000000000000e+00 0.0000000000000000e+00
4.3880153544942342e+00 0.0000000000000000e+00 0.0000000000000000e+00
4.3878086459304759e+00 0.0000000000000000e+00 0.0000000000000000e+00
4.3876060342525687e+00 0.0000000000000000e+00 0.0000000000000000e+00
4.3874075262347807e+00 0.0000000000000000e+00 0.0000000000000000e+00
4.3872131283573701e+00 0.0000000000000000e+00 0.0000000000000000e+00
4.3870228471559471e+00 0.0000000000000000e+00 0.0000000000000000e+00
4.3868366889531245e+00 0.0000000000000000e+00 0.0000000000000000e+00
4.3866546597337654e+00 0.0000000000000000e+00 0.0000000000000000e+00
4.3864767651876519e+00 0.0000000000000000e+00 0.0000000000000000e+00
4.3863030106246086e+00 0.0000000000000000e+00 0.0000000000000000e+00
4.3861334009907313e+00 0.0000000000000000e+00 0.0000000000000000e+00
4.3859679416539281e+00 0.0000000000000000e+00 0.0000000000000000e+00
4.3858066375436664e+00 0.0000000000000000e+00 0.0000000000000000e+00
4.3856494938061585e+00 0.0000000000000000e+00 0.0000000000000000e+00
4.3854965158852446e+00 0.0000000000000000e+00 0.0000000000000000e+00
4.3853477080682808e+00 0.0000000000000000e+00 0.0000000000000000e+00
4.3852030747531021e+00 0.0000000000000000e+00 0.0000000000000000e+00
4.3850626189033175e+00 0.0000000000000000e+00 0.0000000000000000e+00
4.3849263449891680e+00 0.0000000000000000e+00 0.0000000000000000e+00
4.3847942570097782e+00 0.0000000000000000e+00 0.0000000000000000e+00
4.3846663585237176e+00 0.0000000000000000e+00 0.0000000000000000e+00
4.3845426541621046e+00 0.0000000000000000e+00 0.0000000000000000e+00
4.3844231468703443e+00 0.0000000000000000e+00 0.0000000000000000e+00
4.3843078379247711e+00 0.0000000000000000e+00 0.0000000000000000e+00
4.3841967316993751e+00 0.0000000000000000e+00 0.0000000000000000e+00
4.3840898316896189e+00 0.0000000000000000e+00 0.0000000000000000e+00
4.3839871377249819e+00 0.0000000000000000e+00 0.0000000000000000e+00
4.3838886549177269e+00 0.0000000000000000e+00 0.0000000000000000e+00
4.3837943863421307e+00 0.0000000000000000e+00 0.0000000000000000e+00
4.3837043333935632e+00 0.0000000000000000e+00 0.0000000000000000e+00
4.3836184943761216e+00 0.0000000000000000e+00 0.0000000000000000e+00
4.3835368802671715e+00 0.0000000000000000e+00 0.0000000000000000e+00
4.3834594728354510e+00 0.0000000000000000e+00 0.0000000000000000e+00
4.3833863215857605e+00 0.0000000000000000e+00 0.0000000000000000e+00
4.3833173004426378e+00 0.0000000000000000e+00 0.0000000000000000e+00
4.3832527456086021e+00 0.0000000000000000e+00 0.0000000000000000e+00
4.3831917843991208e+00 0.0000000000000000e+00 0.0000000000000000e+00
4.3831366762973740e+00 0.0000000000000000e+00 0.0000000000000000e+00
4.3830815681956272e+00 0.0000000000000000e+00 0.0000000000000000e+00


SCALARS pressure float
LOOKUP_TABLE default
-1.1194155598705240e+01
-1.1085613344824278e+01
-1.0977071090943316e+01
-1.0868471652803972e+01
-1.0759788198726028e+01
-1.0651003936140699e+01
-1.0542113567770315e+01
-1.0433118149594666e+01
-1.0324027838265977e+01
-1.0214835596002111e+01
-1.0105514047332516e+01
-9.9960667457047503e+00
-9.8865036722026876e+00
-9.7768244830094417e+00
-9.6670319687259081e+00
-9.5571360336506643e+00
-9.4471349161996407e+00
-9.3370348775788408e+00
-9.2268477150663788e+00
-9.1165609136520498e+00
-9.0061618777195278e+00
-8.8956530109869050e+00
-8.7850403467249141e+00
-8.6743317193317591e+00
-8.5635407916890269e+00
-8.4526741362704598e+00
-8.3417194845156750e+00
-8.2306731992832241e+00
-8.1195393427571183e+00
-8.0083212619832977e+00
-7.8970180419301146e+00
-7.7856286344495249e+00
-7.6741558861209347e+00
-7.5626033138565898e+00
-7.4509773185096027e+00
-7.3392800414947343e+00
-7.2275116823233638e+00
-7.1156732748798168e+00
-7.0037660220455065e+00
-6.8917917959484081e+00
-6.7797509872779216e+00
-6.6676438306559920e+00
-6.5554729210235703e+00
-6.4432403735486101e+00
-6.3309480858791511e+00
-6.2185978579295407e+00
-6.1061914587005042e+00
-5.9937306340698013e+00
-5.8812171002860927e+00
-5.7686525716603771e+00
-5.6560387646001828e+00
-5.5433773959763979e+00
-5.4306701788461584e+00
-5.3179188256775713e+00
-5.2051250449660165e+00
-5.0922905441921715e+00
-4.9794170299631535e+00
-4.8665062053246189e+00
-4.7535597759168633e+00
-4.6405794463824908e+00
-4.5275669188386223e+00
-4.4145238934178197e+00
-4.3014520654970338e+00
-4.1883531285372069e+00
-4.0752287777536651e+00
-3.9620807073058333e+00
-3.8489106098594617e+00
-3.7357201761455570e+00
-3.6225110963018503e+00
-3.5092850589443709e+00
-3.3960437504829275e+00
-3.2827888551587683e+00
-3.1695220545212899e+00
-3.0562450273664470e+00
-2.9429594531879411e+00
-2.8296670088796860e+00
-2.7163693716073425e+00
-2.6030682190702530e+00
-2.4897652240074417e+00
-2.3764620576871698e+00
-2.2631603836583283e+00
-2.1498618706603638e+00
-2.0365681855211504e+00
-1.9232809923270695e+00
-1.8100019580102980e+00
-1.6967327429085686e+00
-1.5834749984818779e+00
-1.4702303882557637e+00
-1.3570005723852281e+00
-1.2437871926342841e+00
-1.1305919103762052e+00
-1.0174163801690643e+00
-9.0426224949636613e-01
-7.9113114938288231e-01
-6.7802476290457303e-01
-5.6494465206044342e-01
-4.5189265572807774e-01
-3.3886989293064929e-01
-2.2587936035670689e-01
-1.1291917961516432e-01
0.0000000000000000e+00


SCALARS diameter float
LOOKUP_TABLE default
9.9899744158164983e-01
9.9900643613524687e-01
9.9901603148852014e-01
9.9902558621823911e-01
9.9903498371833432e-01
9.9904435092088395e-01
9.9905284623407009e-01
9.9906010155011815e-01
9.9906632613373880e-01
9.9907555150797855e-01
9.9908584668646871e-01
9.9909614839941641e-01
9.9910673970862596e-01
9.9911778349855984e-01
9.9912777406590869e-01
9.9913754502626384e-01
9.9914708949877662e-01
9.9915551737400388e-01
9.9916466947145133e-01
9.9917542964141015e-01
9.9918656201428213e-01
9.9919768596100733e-01
9.9920837692307252e-01
9.9921824390379899e-01
9.9922700842413248e-01
9.9923630013814779e-01
9.9924633950102315e-01
9.9925631435879381e-01
9.9926629292254632e-01
9.9927632133048638e-01
9.9928689345331867e-01
9.9929745328103792e-01
9.9930809189562653e-01
9.9931827095236325e-01
9.9932820130229083e-01
9.9933813467620747e-01
9.9934807051554542e-01
9.9935800904745620e-01
9.9936794961088748e-01
9.9937790817007710e-01
9.9938810258100141e-01
9.9939829337315855e-01
9.9940848303031560e-01
9.9941867252141481e-01
9.9942886215686533e-01
9.9943905128497623e-01
9.9944923900403093e-01
9.9945942728422843e-01
9.9946961611549012e-01
9.9947980528876945e-01
9.9948999441548192e-01
9.9950018373529492e-01
9.9951037315828861e-01
9.9952056282228496e-01
9.9953075286963977e-01
9.9954094310423958e-01
9.9955113384818406e-01
9.9956132494049743e-01
9.9957151618791373e-01
9.9958170763091025e-01
9.9959189929969161e-01
9.9960209138811762e-01
9.9961228414732206e-01
9.9962247729825249e-01
9.9963267086018470e-01
9.9964286476280551e-01
9.9965305909270552e-01
9.9966325377465681e-01
9.9967344878523412e-01
9.9968364415450817e-01
9.9969383996852479e-01
9.9970403630259985e-01
9.9971423334552645e-01
9.9972443101158515e-01
9.9973462923317169e-01
9.9974482811321908e-01
9.9975502719143816e-01
9.9976522684977687e-01
9.9977542695140553e-01
9.9978562804915039e-01
9.9979582981061887e-01
9.9980603204579643e-01
9.9981623503894701e-01
9.9982643832356655e-01
9.9983664194886934e-01
9.9984684667000390e-01
9.9985705242692513e-01
9.9986725782519215e-01
9.9987746546631417e-01
9.9988767304942539e-01
9.9989788096087995e-01
9.9990808912458939e-01
9.9991829911618835e-01
9.9992850893739760e-01
9.9993871954759617e-01
9.9994893135418916e-01
9.9995914365893523e-01
9.9996935666189835e-01
9.9997957051525665e-01
9.9998978659765558e-01
1.0000000062840151e+00


SCALARS iters float
LOOKUP_TABLE default
3.0000000000000000e+00
3.0000000000000000e+00
3.0000000000000000e+00
3.0000000000000000e+00
3.0000000000000000e+00
3.0000000000000000e+00
3.0000000000000000e+00
3.0000000000000000e+00
3.0000000000000000e+00
3.0000000000000000e+00
3.0000000000000000e+00
3.0000000000000000e+00
3.0000000000000000e+00
3.0000000000000000e+00
3.0000000000000000e+00
3.0000000000000000e+00
3.0000000000000000e+00
3.0000000000000000e+00
3.0000000000000000e+00
3.0000000000000000e+00
3.0000000000000000e+00
3.0000000000000000e+00
3.0000000000000000e+00
3.0000000000000000e+00
3.0000000000000000e+00
3.0000000000000000e+00
3.0000000000000000e+00
3.0000000000000000e+00
3.0000000000000000e+00
3.0000000000000000e+00
3.0000000000000000e+00
3.0000000000000000e+00
3.0000000000000000e+00
3.0000000000000000e+00
3.0000000000000000e+00
3.0000000000000000e+00
3.0000000000000000e+00
3.0000000000000000e+00
3.0000000000000000e+00
3.0000000000000000e+00
3.0000000000000000e+00
3.0000000000000000e+00
3.0000000000000000e+00
3.0000000000000000e+00
3.0000000000000000e+00
3.0000000000000000e+00
3.0000000000000000e+00
3.0000000000000000e+00
3.0000000000000000e+00
3.0000000000000000e+00
3.0000000000000000e+00
3.0000000000000000e+00
3.0000000000000000e+00
3.0000000000000000e+00
3.0000000000000000e+00
3.0000000000000000e+00
3.0000000000000000e+00
3.0000000000000000e+00
3.0000000000000000e+00
3.0000000000000000e+00
3.0000000000000000e+00
3.0000000000000000e+00
3.0000000000000000e+00
3.0000000000000000e+00
3.0000000000000000e+00
3.0000000000000000e+00
3.0000000000000000e+00
3.0000000000000000e+00
3.0000000000000000e+00
3.0000000000000000e+00
3.0000000000000000e+00
3.0000000000000000e+00
3.0000000000000000e+00
3.0000000000000000e+00
3.0000000000000000e+00
3.0000000000000000e+00
3.0000000000000000e+00
3.0000000000000000e+00
3.0000000000000000e+00
3.0000000000000000e+00
3.0000000000000000e+00
3.0000000000000000e+00
3.0000000000000000e+00
3.0000000000000000e+00
3.0000000000000000e+00
3.0000000000000000e+00
3.0000000000000000e+00
3.0000000000000000e+00
3.0000000000000000e+00
3.0000000000000000e+00
3.0000000000000000e+00
3.0000000000000000e+00
3.0000000000000000e+00
3.0000000000000000e+00
3.0000000000000000e+00
3.0000000000000000e+00
3.0000000000000000e+00
3.0000000000000000e+00
3.0000000000000000e+00
3.0000000000000000e+00
3.0000000000000000e+00


