# vtk DataFile Version 2.0

ASCII

DATASET UNSTRUCTURED_GRID

POINTS 101 float

0.0000000000000000e+00 0.0000000000000000e+00 0.0000000000000000e+00
1.0000000000000001e-01 0.0000000000000000e+00 0.0000000000000000e+00
2.0000000000000001e-01 0.0000000000000000e+00 0.0000000000000000e+00
3.0000000000000004e-01 0.0000000000000000e+00 0.0000000000000000e+00
4.0000000000000002e-01 0.0000000000000000e+00 0.0000000000000000e+00
5.0000000000000000e-01 0.0000000000000000e+00 0.0000000000000000e+00
6.0000000000000009e-01 0.0000000000000000e+00 0.0000000000000000e+00
7.0000000000000007e-01 0.0000000000000000e+00 0.0000000000000000e+00
8.0000000000000004e-01 0.0000000000000000e+00 0.0000000000000000e+00
9.0000000000000002e-01 0.0000000000000000e+00 0.0000000000000000e+00
1.0000000000000000e+00 0.0000000000000000e+00 0.0000000000000000e+00
1.1000000000000001e+00 0.0000000000000000e+00 0.0000000000000000e+00
1.2000000000000002e+00 0.0000000000000000e+00 0.0000000000000000e+00
1.3000000000000000e+00 0.0000000000000000e+00 0.0000000000000000e+00
1.4000000000000001e+00 0.0000000000000000e+00 0.0000000000000000e+00
1.5000000000000000e+00 0.0000000000000000e+00 0.0000000000000000e+00
1.6000000000000001e+00 0.0000000000000000e+00 0.0000000000000000e+00
1.7000000000000002e+00 0.0000000000000000e+00 0.0000000000000000e+00
1.8000000000000000e+00 0.0000000000000000e+00 0.0000000000000000e+00
1.9000000000000001e+00 0.0000000000000000e+00 0.0000000000000000e+00
2.0000000000000000e+00 0.0000000000000000e+00 0.0000000000000000e+00
2.1000000000000001e+00 0.0000000000000000e+00 0.0000000000000000e+00
2.2000000000000002e+00 0.0000000000000000e+00 0.0000000000000000e+00
2.3000000000000003e+00 0.0000000000000000e+00 0.0000000000000000e+00
2.4000000000000004e+00 0.0000000000000000e+00 0.0000000000000000e+00
2.5000000000000000e+00 0.0000000000000000e+00 0.0000000000000000e+00
2.6000000000000001e+00 0.0000000000000000e+00 0.0000000000000000e+00
2.7000000000000002e+00 0.0000000000000000e+00 0.0000000000000000e+00
2.8000000000000003e+00 0.0000000000000000e+00 0.0000000000000000e+00
2.9000000000000004e+00 0.0000000000000000e+00 0.0000000000000000e+00
3.0000000000000000e+00 0.0000000000000000e+00 0.0000000000000000e+00
3.1000000000000001e+00 0.0000000000000000e+00 0.0000000000000000e+00
3.2000000000000002e+00 0.0000000000000000e+00 0.0000000000000000e+00
3.3000000000000003e+00 0.0000000000000000e+00 0.0000000000000000e+00
3.4000000000000004e+00 0.0000000000000000e+00 0.0000000000000000e+00
3.5000000000000000e+00 0.0000000000000000e+00 0.0000000000000000e+00
3.6000000000000001e+00 0.0000000000000000e+00 0.0000000000000000e+00
3.7000000000000002e+00 0.0000000000000000e+00 0.0000000000000000e+00
3.8000000000000003e+00 0.0000000000000000e+00 0.0000000000000000e+00
3.9000000000000004e+00 0.0000000000000000e+00 0.0000000000000000e+00
4.0000000000000000e+00 0.0000000000000000e+00 0.0000000000000000e+00
4.1000000000000005e+00 0.0000000000000000e+00 0.0000000000000000e+00
4.2000000000000002e+00 0.0000000000000000e+00 0.0000000000000000e+00
4.2999999999999998e+00 0.0000000000000000e+00 0.0000000000000000e+00
4.4000000000000004e+00 0.0000000000000000e+00 0.0000000000000000e+00
4.5000000000000000e+00 0.0000000000000000e+00 0.0000000000000000e+00
4.6000000000000005e+00 0.0000000000000000e+00 0.0000000000000000e+00
4.7000000000000002e+00 0.0000000000000000e+00 0.0000000000000000e+00
4.8000000000000007e+00 0.0000000000000000e+00 0.0000000000000000e+00
4.9000000000000004e+00 0.0000000000000000e+00 0.0000000000000000e+00
5.0000000000000000e+00 0.0000000000000000e+00 0.0000000000000000e+00
5.1000000000000005e+00 0.0000000000000000e+00 0.0000000000000000e+00
5.2000000000000002e+00 0.0000000000000000e+00 0.0000000000000000e+00
5.3000000000000007e+00 0.0000000000000000e+00 0.0000000000000000e+00
5.4000000000000004e+00 0.0000000000000000e+00 0.0000000000000000e+00
5.5000000000000000e+00 0.0000000000000000e+00 0.0000000000000000e+00
5.6000000000000005e+00 0.0000000000000000e+00 0.0000000000000000e+00
5.7000000000000002e+00 0.0000000000000000e+00 0.0000000000000000e+00
5.8000000000000007e+00 0.0000000000000000e+00 0.0000000000000000e+00
5.9000000000000004e+00 0.0000000000000000e+00 0.0000000000000000e+00
6.0000000000000000e+00 0.0000000000000000e+00 0.0000000000000000e+00
6.1000000000000005e+00 0.0000000000000000e+00 0.0000000000000000e+00
6.2000000000000002e+00 0.0000000000000000e+00 0.0000000000000000e+00
6.3000000000000007e+00 0.0000000000000000e+00 0.0000000000000000e+00
6.4000000000000004e+00 0.0000000000000000e+00 0.0000000000000000e+00
6.5000000000000000e+00 0.0000000000000000e+00 0.0000000000000000e+00
6.6000000000000005e+00 0.0000000000000000e+00 0.0000000000000000e+00
6.7000000000000002e+00 0.0000000000000000e+00 0.0000000000000000e+00
6.8000000000000007e+00 0.0000000000000000e+00 0.0000000000000000e+00
6.9000000000000004e+00 0.0000000000000000e+00 0.0000000000000000e+00
7.0000000000000000e+00 0.0000000000000000e+00 0.0000000000000000e+00
7.1000000000000005e+00 0.0000000000000000e+00 0.0000000000000000e+00
7.2000000000000002e+00 0.0000000000000000e+00 0.0000000000000000e+00
7.3000000000000007e+00 0.0000000000000000e+00 0.0000000000000000e+00
7.4000000000000004e+00 0.0000000000000000e+00 0.0000000000000000e+00
7.5000000000000000e+00 0.0000000000000000e+00 0.0000000000000000e+00
7.6000000000000005e+00 0.0000000000000000e+00 0.0000000000000000e+00
7.7000000000000002e+00 0.0000000000000000e+00 0.0000000000000000e+00
7.8000000000000007e+00 0.0000000000000000e+00 0.0000000000000000e+00
7.9000000000000004e+00 0.0000000000000000e+00 0.0000000000000000e+00
8.0000000000000000e+00 0.0000000000000000e+00 0.0000000000000000e+00
8.0999999999999996e+00 0.0000000000000000e+00 0.0000000000000000e+00
8.2000000000000011e+00 0.0000000000000000e+00 0.0000000000000000e+00
8.3000000000000007e+00 0.0000000000000000e+00 0.0000000000000000e+00
8.4000000000000004e+00 0.0000000000000000e+00 0.0000000000000000e+00
8.5000000000000000e+00 0.0000000000000000e+00 0.0000000000000000e+00
8.5999999999999996e+00 0.0000000000000000e+00 0.0000000000000000e+00
8.7000000000000011e+00 0.0000000000000000e+00 0.0000000000000000e+00
8.8000000000000007e+00 0.0000000000000000e+00 0.0000000000000000e+00
8.9000000000000004e+00 0.0000000000000000e+00 0.0000000000000000e+00
9.0000000000000000e+00 0.0000000000000000e+00 0.0000000000000000e+00
9.0999999999999996e+00 0.0000000000000000e+00 0.0000000000000000e+00
9.2000000000000011e+00 0.0000000000000000e+00 0.0000000000000000e+00
9.3000000000000007e+00 0.0000000000000000e+00 0.0000000000000000e+00
9.4000000000000004e+00 0.0000000000000000e+00 0.0000000000000000e+00
9.5000000000000000e+00 0.0000000000000000e+00 0.0000000000000000e+00
9.6000000000000014e+00 0.0000000000000000e+00 0.0000000000000000e+00
9.7000000000000011e+00 0.0000000000000000e+00 0.0000000000000000e+00
9.8000000000000007e+00 0.0000000000000000e+00 0.0000000000000000e+00
9.9000000000000004e+00 0.0000000000000000e+00 0.0000000000000000e+00
1.0000000000000000e+01 0.0000000000000000e+00 0.0000000000000000e+00

POINT_DATA 101

VECTORS velocity float
5.0511583117808270e+00 0.0000000000000000e+00 0.0000000000000000e+00
5.0512974336429668e+00 0.0000000000000000e+00 0.0000000000000000e+00
5.0514171359835744e+00 0.0000000000000000e+00 0.0000000000000000e+00
5.0515228615089525e+00 0.0000000000000000e+00 0.0000000000000000e+00
5.0516199572679428e+00 0.0000000000000000e+00 0.0000000000000000e+00
5.0517132661335653e+00 0.0000000000000000e+00 0.0000000000000000e+00
5.0518069580758622e+00 0.0000000000000000e+00 0.0000000000000000e+00
5.0519026911394578e+00 0.0000000000000000e+00 0.0000000000000000e+00
5.0519975339155270e+00 0.0000000000000000e+00 0.0000000000000000e+00
5.0520893491344374e+00 0.0000000000000000e+00 0.0000000000000000e+00
5.0521793582655246e+00 0.0000000000000000e+00 0.0000000000000000e+00
5.0522683868825107e+00 0.0000000000000000e+00 0.0000000000000000e+00
5.0523574571692942e+00 0.0000000000000000e+00 0.0000000000000000e+00
5.0524486153739021e+00 0.0000000000000000e+00 0.0000000000000000e+00
5.0525417706473474e+00 0.0000000000000000e+00 0.0000000000000000e+00
5.0526363765925435e+00 0.0000000000000000e+00 0.0000000000000000e+00
5.0527289164043587e+00 0.0000000000000000e+00 0.0000000000000000e+00
5.0528168482689715e+00 0.0000000000000000e+00 0.0000000000000000e+00
5.0529032823737339e+00 0.0000000000000000e+00 0.0000000000000000e+00
5.0529897879721739e+00 0.0000000000000000e+00 0.0000000000000000e+00
5.0530761663760186e+00 0.0000000000000000e+00 0.0000000000000000e+00
5.0531626954010429e+00 0.0000000000000000e+00 0.0000000000000000e+00
5.0532502822717200e+00 0.0000000000000000e+00 0.0000000000000000e+00
5.0533393634454598e+00 0.0000000000000000e+00 0.0000000000000000e+00
5.0534293588078363e+00 0.0000000000000000e+00 0.0000000000000000e+00
5.0535185969831957e+00 0.0000000000000000e+00 0.0000000000000000e+00
5.0536068123562909e+00 0.0000000000000000e+00 0.0000000000000000e+00
5.0536945009554683e+00 0.0000000000000000e+00 0.0000000000000000e+00
5.0537819696738664e+00 0.0000000000000000e+00 0.0000000000000000e+00
5.0538685937760395e+00 0.0000000000000000e+00 0.0000000000000000e+00
5.0539539708914214e+00 0.0000000000000000e+00 0.0000000000000000e+00
5.0540386472654122e+00 0.0000000000000000e+00 0.0000000000000000e+00
5.0541231811501541e+00 0.0000000000000000e+00 0.0000000000000000e+00
5.0542081470432780e+00 0.0000000000000000e+00 0.0000000000000000e+00
5.0542933093066855e+00 0.0000000000000000e+00 0.0000000000000000e+00
5.0543783861808169e+00 0.0000000000000000e+00 0.0000000000000000e+00
5.0544632752054106e+00 0.0000000000000000e+00 0.0000000000000000e+00
5.0545479120183527e+00 0.0000000000000000e+00 0.0000000000000000e+00
5.0546322786129956e+00 0.0000000000000000e+00 0.0000000000000000e+00
5.0547163412077953e+00 0.0000000000000000e+00 0.0000000000000000e+00
5.0548002060761528e+00 0.0000000000000000e+00 0.0000000000000000e+00
5.0548838899392097e+00 0.0000000000000000e+00 0.0000000000000000e+00
5.0549674099968289e+00 0.0000000000000000e+00 0.0000000000000000e+00
5.0550507762667607e+00 0.0000000000000000e+00 0.0000000000000000e+00
5.0551339948575906e+00 0.0000000000000000e+00 0.0000000000000000e+00
5.0552170690298235e+00 0.0000000000000000e+00 0.0000000000000000e+00
5.0553000004420392e+00 0.0000000000000000e+00 0.0000000000000000e+00
5.0553827892752849e+00 0.0000000000000000e+00 0.0000000000000000e+00
5.0554654360965472e+00 0.0000000000000000e+00 0.0000000000000000e+00
5.0555479410650310e+00 0.0000000000000000e+00 0.0000000000000000e+00
5.0556303033950121e+00 0.0000000000000000e+00 0.0000000000000000e+00
5.0557125231984283e+00 0.0000000000000000e+00 0.0000000000000000e+00
5.0557945997003584e+00 0.0000000000000000e+00 0.0000000000000000e+00
5.0558765319321006e+00 0.0000000000000000e+00 0.0000000000000000e+00
5.0559583195958879e+00 0.0000000000000000e+00 0.0000000000000000e+00
5.0560399624519548e+00 0.0000000000000000e+00 0.0000000000000000e+00
5.0561214595645847e+00 0.0000000000000000e+00 0.0000000000000000e+00
5.0562028102497720e+00 0.0000000000000000e+00 0.0000000000000000e+00
5.0562840144622365e+00 0.0000000000000000e+00 0.0000000000000000e+00
5.0563650715031674e+00 0.0000000000000000e+00 0.0000000000000000e+00
5.0564459805131863e+00 0.0000000000000000e+00 0.0000000000000000e+00
5.0565267412291144e+00 0.0000000000000000e+00 0.0000000000000000e+00
5.0566073532907536e+00 0.0000000000000000e+00 0.0000000000000000e+00
5.0566878158407560e+00 0.0000000000000000e+00 0.0000000000000000e+00
5.0567681282877270e+00 0.0000000000000000e+00 0.0000000000000000e+00
5.0568482900903531e+00 0.0000000000000000e+00 0.0000000000000000e+00
5.0569283006225350e+00 0.0000000000000000e+00 0.0000000000000000e+00
5.0570081593938676e+00 0.0000000000000000e+00 0.0000000000000000e+00
5.0570878658630276e+00 0.0000000000000000e+00 0.0000000000000000e+00
5.0571674193943359e+00 0.0000000000000000e+00 0.0000000000000000e+00
5.0572468194027520e+00 0.0000000000000000e+00 0.0000000000000000e+00
5.0573260653680547e+00 0.0000000000000000e+00 0.0000000000000000e+00
5.0574051567520115e+00 0.0000000000000000e+00 0.0000000000000000e+00
5.0574840929270160e+00 0.0000000000000000e+00 0.0000000000000000e+00
5.0575628733099602e+00 0.0000000000000000e+00 0.0000000000000000e+00
5.0576414972199020e+00 0.0000000000000000e+00 0.0000000000000000e+00
5.0577199640635522e+00 0.0000000000000000e+00 0.0000000000000000e+00
5.0577982732028355e+00 0.0000000000000000e+00 0.0000000000000000e+00
5.0578764240352418e+00 0.0000000000000000e+00 0.0000000000000000e+00
5.0579544162225041e+00 0.0000000000000000e+00 0.0000000000000000e+00
5.0580322491951701e+00 0.0000000000000000e+00 0.0000000000000000e+00
5.0581099223349595e+00 0.0000000000000000e+00 0.0000000000000000e+00
5.0581874349426021e+00 0.0000000000000000e+00 0.0000000000000000e+00
5.0582647862989125e+00 0.0000000000000000e+00 0.0000000000000000e+00
5.0583419759735619e+00 0.0000000000000000e+00 0.0000000000000000e+00
5.0584190034656942e+00 0.0000000000000000e+00 0.0000000000000000e+00
5.0584958685007262e+00 0.0000000000000000e+00 0.0000000000000000e+00
5.0585725697091455e+00 0.0000000000000000e+00 0.0000000000000000e+00
5.0586491063536840e+00 0.0000000000000000e+00 0.0000000000000000e+00
5.0587254775715182e+00 0.0000000000000000e+00 0.0000000000000000e+00
5.0588016840140657e+00 0.0000000000000000e+00 0.0000000000000000e+00
5.0588777258000581e+00 0.0000000000000000e+00 0.0000000000000000e+00
5.0589536006868965e+00 0.0000000000000000e+00 0.0000000000000000e+00
5.0590293098913222e+00 0.0000000000000000e+00 0.0000000000000000e+00
5.0591048487805175e+00 0.0000000000000000e+00 0.0000000000000000e+00
5.0591802235272993e+00 0.0000000000000000e+00 0.0000000000000000e+00
5.0592554205991540e+00 0.0000000000000000e+00 0.0000000000000000e+00
5.0593304615184325e+00 0.0000000000000000e+00 0.0000000000000000e+00
5.0594053164127999e+00 0.0000000000000000e+00 0.0000000000000000e+00
5.0594799863028124e+00 0.0000000000000000e+00 0.0000000000000000e+00
5.0595546561928249e+00 0.0000000000000000e+00 0.0000000000000000e+00


SCALARS pressure float
LOOKUP_TABLE default
1.6073559311392231e+01
1.5918492138629531e+01
1.5763424965866832e+01
1.5608285740253470e+01
1.5453042578043185e+01
1.5297670190647782e+01
1.5142146019666500e+01
1.4986450439872877e+01
1.4830574584598677e+01
1.4674530516229751e+01
1.4518330669265648e+01
1.4361973646645708e+01
1.4205457165784171e+01
1.4048777895365747e+01
1.3891928116015938e+01
1.3734908330375111e+01
1.3577722340651890e+01
1.3420386930596257e+01
1.3262917208051764e+01
1.3105304620170923e+01
1.2947542626436528e+01
1.2789632319522305e+01
1.2631574127789779e+01
1.2473365734357277e+01
1.2315006310241850e+01
1.2156499730562006e+01
1.1997855154319030e+01
1.1839076660992815e+01
1.1680164382890046e+01
1.1521118522980048e+01
1.1361943205683469e+01
1.1202642340845983e+01
1.1043215873952063e+01
1.0883663025723955e+01
1.0723982974300773e+01
1.0564178193885439e+01
1.0404251898591198e+01
1.0244206693088836e+01
1.0084044889218243e+01
9.9237686067311888e+00
9.7633798040527253e+00
9.6028795707898347e+00
9.4422694128716014e+00
9.2815509550782540e+00
9.1207258960258208e+00
8.9597959755060970e+00
8.7987629588488687e+00
8.6376286262216357e+00
8.4763947686921099e+00
8.3150631791445058e+00
8.1536356537372239e+00
7.9921139941549146e+00
7.8305000003503960e+00
7.6687954765380590e+00
7.5070022293456349e+00
7.3451220639018366e+00
7.1831567856356839e+00
7.0211082037281001e+00
6.8589781278042219e+00
6.6967683656965695e+00
6.5344807283705926e+00
6.3721170287595656e+00
6.2096790783950393e+00
6.0471686896546535e+00
5.8845876778223429e+00
5.7219378582956306e+00
5.5592210469572896e+00
5.3964390607722139e+00
5.2335937169853777e+00
5.0706868337258149e+00
4.9077202302697271e+00
4.7446957264731902e+00
4.5816151425926286e+00
4.4184802995713426e+00
4.2552930193866203e+00
4.0920551245306420e+00
3.9287684385142421e+00
3.7654347851696568e+00
3.6020559890509003e+00
3.4386338751466212e+00
3.2751702677929275e+00
3.1116669926302238e+00
2.9481258761681657e+00
2.7845487457969247e+00
2.6209374295066410e+00
2.4572937545361730e+00
2.2936195486969368e+00
2.1299166393548719e+00
1.9661868586668467e+00
1.8024320370653586e+00
1.6386540057066816e+00
1.4748545896746517e+00
1.3110356159434091e+00
1.1471989206885309e+00
9.8334633026780915e-01
8.1947968709650909e-01
6.5560080896711515e-01
4.9171154659151262e-01
3.2781372761468336e-01
1.6390908556440209e-01
0.0000000000000000e+00


SCALARS diameter float
LOOKUP_TABLE default
1.0014585075607516e+00
1.0014418170910315e+00
1.0014258601445249e+00
1.0014115128942773e+00
1.0013980373391778e+00
1.0013845395808469e+00
1.0013702846712478e+00
1.0013550125316244e+00
1.0013398433249352e+00
1.0013258352538112e+00
1.0013121361380486e+00
1.0012984164720826e+00
1.0012845924463902e+00
1.0012700863431703e+00
1.0012548422189369e+00
1.0012394813493342e+00
1.0012243606728637e+00
1.0012110663005545e+00
1.0011977828509164e+00
1.0011840541820369e+00
1.0011701824933248e+00
1.0011562837459094e+00
1.0011419799512704e+00
1.0011272377431348e+00
1.0011122085165607e+00
1.0010974346410053e+00
1.0010830367808967e+00
1.0010686022966975e+00
1.0010541622582900e+00
1.0010397524576802e+00
1.0010257616352325e+00
1.0010117550344315e+00
1.0009977242629460e+00
1.0009834090021685e+00
1.0009689681800376e+00
1.0009545207514552e+00
1.0009400656574281e+00
1.0009256024995581e+00
1.0009111313802093e+00
1.0008966515438480e+00
1.0008821446333462e+00
1.0008676268894434e+00
1.0008530989337299e+00
1.0008385615217308e+00
1.0008240149320440e+00
1.0008094594109131e+00
1.0007948952192476e+00
1.0007803225925125e+00
1.0007657418126654e+00
1.0007511526096626e+00
1.0007365556093384e+00
1.0007219506707099e+00
1.0007073380069076e+00
1.0006927180308525e+00
1.0006780907588264e+00
1.0006634562393737e+00
1.0006488147148231e+00
1.0006341665189111e+00
1.0006195115217285e+00
1.0006048499400979e+00
1.0005901820826624e+00
1.0005755080140961e+00
1.0005608277544102e+00
1.0005461416156125e+00
1.0005314497762483e+00
1.0005167523263550e+00
1.0005020494721222e+00
1.0004873413273778e+00
1.0004726280347946e+00
1.0004579097699171e+00
1.0004431867007824e+00
1.0004284589478456e+00
1.0004137266604145e+00
1.0003989899976546e+00
1.0003842491365906e+00
1.0003695042170029e+00
1.0003547554466137e+00
1.0003400029114253e+00
1.0003252468496171e+00
1.0003104872650097e+00
1.0002957243455977e+00
1.0002809582478998e+00
1.0002661891553191e+00
1.0002514172523496e+00
1.0002366426501137e+00
1.0002218654232531e+00
1.0002070857058238e+00
1.0001923036937681e+00
1.0001775198924874e+00
1.0001627340939914e+00
1.0001479466128553e+00
1.0001331566742182e+00
1.0001183655931067e+00
1.0001035728193119e+00
1.0000887790592747e+00
1.0000739842407496e+00
1.0000591885413188e+00
1.0000443920912359e+00
1.0000295951396334e+00
1.0000147978635270e+00
9.9999999985414223e-01


SCALARS iters float
LOOKUP_TABLE default
3.0000000000000000e+00
3.0000000000000000e+00
3.0000000000000000e+00
3.0000000000000000e+00
3.0000000000000000e+00
3.0000000000000000e+00
3.0000000000000000e+00
3.0000000000000000e+00
3.0000000000000000e+00
3.0000000000000000e+00
3.0000000000000000e+00
3.0000000000000000e+00
3.0000000000000000e+00
3.0000000000000000e+00
3.0000000000000000e+00
3.0000000000000000e+00
3.0000000000000000e+00
3.0000000000000000e+00
3.0000000000000000e+00
3.0000000000000000e+00
3.0000000000000000e+00
3.0000000000000000e+00
3.0000000000000000e+00
3.0000000000000000e+00
3.0000000000000000e+00
3.0000000000000000e+00
3.0000000000000000e+00
3.0000000000000000e+00
3.0000000000000000e+00
3.0000000000000000e+00
3.0000000000000000e+00
3.0000000000000000e+00
3.0000000000000000e+00
3.0000000000000000e+00
3.0000000000000000e+00
3.0000000000000000e+00
3.0000000000000000e+00
3.0000000000000000e+00
3.0000000000000000e+00
3.0000000000000000e+00
3.0000000000000000e+00
3.0000000000000000e+00
3.0000000000000000e+00
3.0000000000000000e+00
3.0000000000000000e+00
3.0000000000000000e+00
3.0000000000000000e+00
3.0000000000000000e+00
3.0000000000000000e+00
3.0000000000000000e+00
3.0000000000000000e+00
3.0000000000000000e+00
3.0000000000000000e+00
3.0000000000000000e+00
3.0000000000000000e+00
3.0000000000000000e+00
3.0000000000000000e+00
3.0000000000000000e+00
3.0000000000000000e+00
3.0000000000000000e+00
3.0000000000000000e+00
3.0000000000000000e+00
3.0000000000000000e+00
3.0000000000000000e+00
3.0000000000000000e+00
3.0000000000000000e+00
3.0000000000000000e+00
3.0000000000000000e+00
3.0000000000000000e+00
3.0000000000000000e+00
3.0000000000000000e+00
3.0000000000000000e+00
3.0000000000000000e+00
3.0000000000000000e+00
3.0000000000000000e+00
3.0000000000000000e+00
3.0000000000000000e+00
3.0000000000000000e+00
3.0000000000000000e+00
3.0000000000000000e+00
3.0000000000000000e+00
3.0000000000000000e+00
3.0000000000000000e+00
3.0000000000000000e+00
3.0000000000000000e+00
3.0000000000000000e+00
3.0000000000000000e+00
3.0000000000000000e+00
3.0000000000000000e+00
3.0000000000000000e+00
3.0000000000000000e+00
3.0000000000000000e+00
3.0000000000000000e+00
3.0000000000000000e+00
3.0000000000000000e+00
3.0000000000000000e+00
3.0000000000000000e+00
3.0000000000000000e+00
3.0000000000000000e+00
3.0000000000000000e+00
3.0000000000000000e+00


