# vtk DataFile Version 2.0

ASCII

DATASET UNSTRUCTURED_GRID

POINTS 101 float

0.0000000000000000e+00 0.0000000000000000e+00 0.0000000000000000e+00
1.0000000000000001e-01 0.0000000000000000e+00 0.0000000000000000e+00
2.0000000000000001e-01 0.0000000000000000e+00 0.0000000000000000e+00
3.0000000000000004e-01 0.0000000000000000e+00 0.0000000000000000e+00
4.0000000000000002e-01 0.0000000000000000e+00 0.0000000000000000e+00
5.0000000000000000e-01 0.0000000000000000e+00 0.0000000000000000e+00
6.0000000000000009e-01 0.0000000000000000e+00 0.0000000000000000e+00
7.0000000000000007e-01 0.0000000000000000e+00 0.0000000000000000e+00
8.0000000000000004e-01 0.0000000000000000e+00 0.0000000000000000e+00
9.0000000000000002e-01 0.0000000000000000e+00 0.0000000000000000e+00
1.0000000000000000e+00 0.0000000000000000e+00 0.0000000000000000e+00
1.1000000000000001e+00 0.0000000000000000e+00 0.0000000000000000e+00
1.2000000000000002e+00 0.0000000000000000e+00 0.0000000000000000e+00
1.3000000000000000e+00 0.0000000000000000e+00 0.0000000000000000e+00
1.4000000000000001e+00 0.0000000000000000e+00 0.0000000000000000e+00
1.5000000000000000e+00 0.0000000000000000e+00 0.0000000000000000e+00
1.6000000000000001e+00 0.0000000000000000e+00 0.0000000000000000e+00
1.7000000000000002e+00 0.0000000000000000e+00 0.0000000000000000e+00
1.8000000000000000e+00 0.0000000000000000e+00 0.0000000000000000e+00
1.9000000000000001e+00 0.0000000000000000e+00 0.0000000000000000e+00
2.0000000000000000e+00 0.0000000000000000e+00 0.0000000000000000e+00
2.1000000000000001e+00 0.0000000000000000e+00 0.0000000000000000e+00
2.2000000000000002e+00 0.0000000000000000e+00 0.0000000000000000e+00
2.3000000000000003e+00 0.0000000000000000e+00 0.0000000000000000e+00
2.4000000000000004e+00 0.0000000000000000e+00 0.0000000000000000e+00
2.5000000000000000e+00 0.0000000000000000e+00 0.0000000000000000e+00
2.6000000000000001e+00 0.0000000000000000e+00 0.0000000000000000e+00
2.7000000000000002e+00 0.0000000000000000e+00 0.0000000000000000e+00
2.8000000000000003e+00 0.0000000000000000e+00 0.0000000000000000e+00
2.9000000000000004e+00 0.0000000000000000e+00 0.0000000000000000e+00
3.0000000000000000e+00 0.0000000000000000e+00 0.0000000000000000e+00
3.1000000000000001e+00 0.0000000000000000e+00 0.0000000000000000e+00
3.2000000000000002e+00 0.0000000000000000e+00 0.0000000000000000e+00
3.3000000000000003e+00 0.0000000000000000e+00 0.0000000000000000e+00
3.4000000000000004e+00 0.0000000000000000e+00 0.0000000000000000e+00
3.5000000000000000e+00 0.0000000000000000e+00 0.0000000000000000e+00
3.6000000000000001e+00 0.0000000000000000e+00 0.0000000000000000e+00
3.7000000000000002e+00 0.0000000000000000e+00 0.0000000000000000e+00
3.8000000000000003e+00 0.0000000000000000e+00 0.0000000000000000e+00
3.9000000000000004e+00 0.0000000000000000e+00 0.0000000000000000e+00
4.0000000000000000e+00 0.0000000000000000e+00 0.0000000000000000e+00
4.1000000000000005e+00 0.0000000000000000e+00 0.0000000000000000e+00
4.2000000000000002e+00 0.0000000000000000e+00 0.0000000000000000e+00
4.2999999999999998e+00 0.0000000000000000e+00 0.0000000000000000e+00
4.4000000000000004e+00 0.0000000000000000e+00 0.0000000000000000e+00
4.5000000000000000e+00 0.0000000000000000e+00 0.0000000000000000e+00
4.6000000000000005e+00 0.0000000000000000e+00 0.0000000000000000e+00
4.7000000000000002e+00 0.0000000000000000e+00 0.0000000000000000e+00
4.8000000000000007e+00 0.0000000000000000e+00 0.0000000000000000e+00
4.9000000000000004e+00 0.0000000000000000e+00 0.0000000000000000e+00
5.0000000000000000e+00 0.0000000000000000e+00 0.0000000000000000e+00
5.1000000000000005e+00 0.0000000000000000e+00 0.0000000000000000e+00
5.2000000000000002e+00 0.0000000000000000e+00 0.0000000000000000e+00
5.3000000000000007e+00 0.0000000000000000e+00 0.0000000000000000e+00
5.4000000000000004e+00 0.0000000000000000e+00 0.0000000000000000e+00
5.5000000000000000e+00 0.0000000000000000e+00 0.0000000000000000e+00
5.6000000000000005e+00 0.0000000000000000e+00 0.0000000000000000e+00
5.7000000000000002e+00 0.0000000000000000e+00 0.0000000000000000e+00
5.8000000000000007e+00 0.0000000000000000e+00 0.0000000000000000e+00
5.9000000000000004e+00 0.0000000000000000e+00 0.0000000000000000e+00
6.0000000000000000e+00 0.0000000000000000e+00 0.0000000000000000e+00
6.1000000000000005e+00 0.0000000000000000e+00 0.0000000000000000e+00
6.2000000000000002e+00 0.0000000000000000e+00 0.0000000000000000e+00
6.3000000000000007e+00 0.0000000000000000e+00 0.0000000000000000e+00
6.4000000000000004e+00 0.0000000000000000e+00 0.0000000000000000e+00
6.5000000000000000e+00 0.0000000000000000e+00 0.0000000000000000e+00
6.6000000000000005e+00 0.0000000000000000e+00 0.0000000000000000e+00
6.7000000000000002e+00 0.0000000000000000e+00 0.0000000000000000e+00
6.8000000000000007e+00 0.0000000000000000e+00 0.0000000000000000e+00
6.9000000000000004e+00 0.0000000000000000e+00 0.0000000000000000e+00
7.0000000000000000e+00 0.0000000000000000e+00 0.0000000000000000e+00
7.1000000000000005e+00 0.0000000000000000e+00 0.0000000000000000e+00
7.2000000000000002e+00 0.0000000000000000e+00 0.0000000000000000e+00
7.3000000000000007e+00 0.0000000000000000e+00 0.0000000000000000e+00
7.4000000000000004e+00 0.0000000000000000e+00 0.0000000000000000e+00
7.5000000000000000e+00 0.0000000000000000e+00 0.0000000000000000e+00
7.6000000000000005e+00 0.0000000000000000e+00 0.0000000000000000e+00
7.7000000000000002e+00 0.0000000000000000e+00 0.0000000000000000e+00
7.8000000000000007e+00 0.0000000000000000e+00 0.0000000000000000e+00
7.9000000000000004e+00 0.0000000000000000e+00 0.0000000000000000e+00
8.0000000000000000e+00 0.0000000000000000e+00 0.0000000000000000e+00
8.0999999999999996e+00 0.0000000000000000e+00 0.0000000000000000e+00
8.2000000000000011e+00 0.0000000000000000e+00 0.0000000000000000e+00
8.3000000000000007e+00 0.0000000000000000e+00 0.0000000000000000e+00
8.4000000000000004e+00 0.0000000000000000e+00 0.0000000000000000e+00
8.5000000000000000e+00 0.0000000000000000e+00 0.0000000000000000e+00
8.5999999999999996e+00 0.0000000000000000e+00 0.0000000000000000e+00
8.7000000000000011e+00 0.0000000000000000e+00 0.0000000000000000e+00
8.8000000000000007e+00 0.0000000000000000e+00 0.0000000000000000e+00
8.9000000000000004e+00 0.0000000000000000e+00 0.0000000000000000e+00
9.0000000000000000e+00 0.0000000000000000e+00 0.0000000000000000e+00
9.0999999999999996e+00 0.0000000000000000e+00 0.0000000000000000e+00
9.2000000000000011e+00 0.0000000000000000e+00 0.0000000000000000e+00
9.3000000000000007e+00 0.0000000000000000e+00 0.0000000000000000e+00
9.4000000000000004e+00 0.0000000000000000e+00 0.0000000000000000e+00
9.5000000000000000e+00 0.0000000000000000e+00 0.0000000000000000e+00
9.6000000000000014e+00 0.0000000000000000e+00 0.0000000000000000e+00
9.7000000000000011e+00 0.0000000000000000e+00 0.0000000000000000e+00
9.8000000000000007e+00 0.0000000000000000e+00 0.0000000000000000e+00
9.9000000000000004e+00 0.0000000000000000e+00 0.0000000000000000e+00
1.0000000000000000e+01 0.0000000000000000e+00 0.0000000000000000e+00

POINT_DATA 101

VECTORS velocity float
3.5600757217009478e+00 0.0000000000000000e+00 0.0000000000000000e+00
3.5599550623337493e+00 0.0000000000000000e+00 0.0000000000000000e+00
3.5598333308238677e+00 0.0000000000000000e+00 0.0000000000000000e+00
3.5597115934829513e+00 0.0000000000000000e+00 0.0000000000000000e+00
3.5595906263126165e+00 0.0000000000000000e+00 0.0000000000000000e+00
3.5594706503888056e+00 0.0000000000000000e+00 0.0000000000000000e+00
3.5593531945072368e+00 0.0000000000000000e+00 0.0000000000000000e+00
3.5592397514567962e+00 0.0000000000000000e+00 0.0000000000000000e+00
3.5591271201722163e+00 0.0000000000000000e+00 0.0000000000000000e+00
3.5590116479583465e+00 0.0000000000000000e+00 0.0000000000000000e+00
3.5588944734030701e+00 0.0000000000000000e+00 0.0000000000000000e+00
3.5587770055085675e+00 0.0000000000000000e+00 0.0000000000000000e+00
3.5586597707073797e+00 0.0000000000000000e+00 0.0000000000000000e+00
3.5585443241677317e+00 0.0000000000000000e+00 0.0000000000000000e+00
3.5584315831565534e+00 0.0000000000000000e+00 0.0000000000000000e+00
3.5583212671789188e+00 0.0000000000000000e+00 0.0000000000000000e+00
3.5582126206234688e+00 0.0000000000000000e+00 0.0000000000000000e+00
3.5581043175453573e+00 0.0000000000000000e+00 0.0000000000000000e+00
3.5579955858751169e+00 0.0000000000000000e+00 0.0000000000000000e+00
3.5578863007434949e+00 0.0000000000000000e+00 0.0000000000000000e+00
3.5577771333303247e+00 0.0000000000000000e+00 0.0000000000000000e+00
3.5576694839215439e+00 0.0000000000000000e+00 0.0000000000000000e+00
3.5575640310090240e+00 0.0000000000000000e+00 0.0000000000000000e+00
3.5574610307126129e+00 0.0000000000000000e+00 0.0000000000000000e+00
3.5573578584232184e+00 0.0000000000000000e+00 0.0000000000000000e+00
3.5572540010070623e+00 0.0000000000000000e+00 0.0000000000000000e+00
3.5571517676501014e+00 0.0000000000000000e+00 0.0000000000000000e+00
3.5570507722668290e+00 0.0000000000000000e+00 0.0000000000000000e+00
3.5569508582072733e+00 0.0000000000000000e+00 0.0000000000000000e+00
3.5568515848129514e+00 0.0000000000000000e+00 0.0000000000000000e+00
3.5567526764917998e+00 0.0000000000000000e+00 0.0000000000000000e+00
3.5566544011032684e+00 0.0000000000000000e+00 0.0000000000000000e+00
3.5565570161768583e+00 0.0000000000000000e+00 0.0000000000000000e+00
3.5564608066117729e+00 0.0000000000000000e+00 0.0000000000000000e+00
3.5563657242500404e+00 0.0000000000000000e+00 0.0000000000000000e+00
3.5562716711588029e+00 0.0000000000000000e+00 0.0000000000000000e+00
3.5561786069937846e+00 0.0000000000000000e+00 0.0000000000000000e+00
3.5560865105968622e+00 0.0000000000000000e+00 0.0000000000000000e+00
3.5559953861018334e+00 0.0000000000000000e+00 0.0000000000000000e+00
3.5559051691714298e+00 0.0000000000000000e+00 0.0000000000000000e+00
3.5558156803284202e+00 0.0000000000000000e+00 0.0000000000000000e+00
3.5557269753243306e+00 0.0000000000000000e+00 0.0000000000000000e+00
3.5556390691410140e+00 0.0000000000000000e+00 0.0000000000000000e+00
3.5555519652408365e+00 0.0000000000000000e+00 0.0000000000000000e+00
3.5554656635852147e+00 0.0000000000000000e+00 0.0000000000000000e+00
3.5553801632990107e+00 0.0000000000000000e+00 0.0000000000000000e+00
3.5552954633090286e+00 0.0000000000000000e+00 0.0000000000000000e+00
3.5552115626996317e+00 0.0000000000000000e+00 0.0000000000000000e+00
3.5551284609861646e+00 0.0000000000000000e+00 0.0000000000000000e+00
3.5550461575328614e+00 0.0000000000000000e+00 0.0000000000000000e+00
3.5549646513548372e+00 0.0000000000000000e+00 0.0000000000000000e+00
3.5548839417338800e+00 0.0000000000000000e+00 0.0000000000000000e+00
3.5548040281698254e+00 0.0000000000000000e+00 0.0000000000000000e+00
3.5547249100391616e+00 0.0000000000000000e+00 0.0000000000000000e+00
3.5546465868312356e+00 0.0000000000000000e+00 0.0000000000000000e+00
3.5545690582293319e+00 0.0000000000000000e+00 0.0000000000000000e+00
3.5544923231482808e+00 0.0000000000000000e+00 0.0000000000000000e+00
3.5544163808573410e+00 0.0000000000000000e+00 0.0000000000000000e+00
3.5543412314225500e+00 0.0000000000000000e+00 0.0000000000000000e+00
3.5542668744499633e+00 0.0000000000000000e+00 0.0000000000000000e+00
3.5541933094023515e+00 0.0000000000000000e+00 0.0000000000000000e+00
3.5541205357138952e+00 0.0000000000000000e+00 0.0000000000000000e+00
3.5540485528535140e+00 0.0000000000000000e+00 0.0000000000000000e+00
3.5539773601588669e+00 0.0000000000000000e+00 0.0000000000000000e+00
3.5539069571041892e+00 0.0000000000000000e+00 0.0000000000000000e+00
3.5538373432626567e+00 0.0000000000000000e+00 0.0000000000000000e+00
3.5537685181140470e+00 0.0000000000000000e+00 0.0000000000000000e+00
3.5537004812690522e+00 0.0000000000000000e+00 0.0000000000000000e+00
3.5536332323519746e+00 0.0000000000000000e+00 0.0000000000000000e+00
3.5535667708894199e+00 0.0000000000000000e+00 0.0000000000000000e+00
3.5535010964139548e+00 0.0000000000000000e+00 0.0000000000000000e+00
3.5534362084485145e+00 0.0000000000000000e+00 0.0000000000000000e+00
3.5533721065217643e+00 0.0000000000000000e+00 0.0000000000000000e+00
3.5533087902756209e+00 0.0000000000000000e+00 0.0000000000000000e+00
3.5532462593404750e+00 0.0000000000000000e+00 0.0000000000000000e+00
3.5531845132357374e+00 0.0000000000000000e+00 0.0000000000000000e+00
3.5531235518178965e+00 0.0000000000000000e+00 0.0000000000000000e+00
3.5530633744565754e+00 0.0000000000000000e+00 0.0000000000000000e+00
3.5530039809039580e+00 0.0000000000000000e+00 0.0000000000000000e+00
3.5529453713087027e+00 0.0000000000000000e+00 0.0000000000000000e+00
3.5528875447661963e+00 0.0000000000000000e+00 0.0000000000000000e+00
3.5528305007680583e+00 0.0000000000000000e+00 0.0000000000000000e+00
3.5527742389010131e+00 0.0000000000000000e+00 0.0000000000000000e+00
3.5527187600266390e+00 0.0000000000000000e+00 0.0000000000000000e+00
3.5526640634110693e+00 0.0000000000000000e+00 0.0000000000000000e+00
3.5526101469847680e+00 0.0000000000000000e+00 0.0000000000000000e+00
3.5525570101082775e+00 0.0000000000000000e+00 0.0000000000000000e+00
3.5525046537066820e+00 0.0000000000000000e+00 0.0000000000000000e+00
3.5524530786101529e+00 0.0000000000000000e+00 0.0000000000000000e+00
3.5524022844335841e+00 0.0000000000000000e+00 0.0000000000000000e+00
3.5523522706832322e+00 0.0000000000000000e+00 0.0000000000000000e+00
3.5523030359459100e+00 0.0000000000000000e+00 0.0000000000000000e+00
3.5522545792298663e+00 0.0000000000000000e+00 0.0000000000000000e+00
3.5522069044069169e+00 0.0000000000000000e+00 0.0000000000000000e+00
3.5521600036557945e+00 0.0000000000000000e+00 0.0000000000000000e+00
3.5521138924413926e+00 0.0000000000000000e+00 0.0000000000000000e+00
3.5520685334188866e+00 0.0000000000000000e+00 0.0000000000000000e+00
3.5520240131630669e+00 0.0000000000000000e+00 0.0000000000000000e+00
3.5519801290257074e+00 0.0000000000000000e+00 0.0000000000000000e+00
3.5519373540588619e+00 0.0000000000000000e+00 0.0000000000000000e+00
3.5518945790920169e+00 0.0000000000000000e+00 0.0000000000000000e+00


SCALARS pressure float
LOOKUP_TABLE default
-1.2806204202199472e+01
-1.2676987929786414e+01
-1.2547771657373353e+01
-1.2418580833892083e+01
-1.2289419178975947e+01
-1.2160288840094072e+01
-1.2031189816406750e+01
-1.1902126776492102e+01
-1.1773104124947739e+01
-1.1644110758746493e+01
-1.1515133866573256e+01
-1.1386177327991062e+01
-1.1257245921205660e+01
-1.1128341264395623e+01
-1.0999468369818375e+01
-1.0870630146785970e+01
-1.0741825239726746e+01
-1.0613050342269506e+01
-1.0484300884556024e+01
-1.0355574626294285e+01
-1.0226871203131330e+01
-1.0098192738723728e+01
-9.9695436599405411e+00
-9.8409257267730670e+00
-9.7123392694041684e+00
-9.5837751393699016e+00
-9.4552316253675617e+00
-9.3267167156379838e+00
-9.1982288857227914e+00
-9.0697673356174526e+00
-8.9413303282957202e+00
-8.8129166273255137e+00
-8.6845269118039710e+00
-8.5561618311843457e+00
-8.4278223289207617e+00
-8.2995082351243088e+00
-8.1712191817428401e+00
-8.0429550064141040e+00
-7.9147156062384205e+00
-7.7865010034698345e+00
-7.6583108482672495e+00
-7.5301440550970522e+00
-7.4020004679807840e+00
-7.2738798330304331e+00
-7.1457818704512821e+00
-7.0177062940293942e+00
-6.8896528173741363e+00
-6.7616211556892161e+00
-6.6336110259573156e+00
-6.5056221476050009e+00
-6.3776542402931051e+00
-6.2497070233944827e+00
-6.1217802181109660e+00
-5.9938735472871398e+00
-5.8659867341775813e+00
-5.7381195031455787e+00
-5.6102715800078382e+00
-5.4824426885610453e+00
-5.3546325546073437e+00
-5.2268409074622451e+00
-5.0990674754901564e+00
-4.9713119872064020e+00
-4.8435741716635672e+00
-4.7158537584789348e+00
-4.5881504773277557e+00
-4.4604640588912163e+00
-4.3327942347404047e+00
-4.2051407366150757e+00
-4.0775032972183656e+00
-3.9498816497832032e+00
-3.8222755276561227e+00
-3.6946846646177463e+00
-3.5671087948035463e+00
-3.4395476526584190e+00
-3.3120009732680407e+00
-3.1844684919673423e+00
-3.0569499438421794e+00
-2.9294450655463513e+00
-2.8019535921774170e+00
-2.6744752605123705e+00
-2.5470098086584820e+00
-2.4195569710465676e+00
-2.2921164836718746e+00
-2.1646880828832602e+00
-2.0372715095880136e+00
-1.9098664990804561e+00
-1.7824727821552055e+00
-1.6550900943769971e+00
-1.5277181774215165e+00
-1.4003567718484238e+00
-1.2730056138654862e+00
-1.1456644392343214e+00
-1.0183329805401500e+00
-8.9101097174942501e-01
-7.6369816292449255e-01
-6.3639426494343110e-01
-5.0909906506640101e-01
-3.8181217680418605e-01
-2.5453362003587876e-01
-1.2726246631626187e-01
0.0000000000000000e+00


SCALARS diameter float
LOOKUP_TABLE default
9.9883865457938548e-01
9.9885315117886520e-01
9.9886594420167374e-01
9.9887887254402152e-01
9.9889131042031842e-01
9.9890369551255442e-01
9.9891526601580871e-01
9.9892559313605100e-01
9.9893562842772510e-01
9.9894767976705923e-01
9.9896035987869936e-01
9.9897300237554321e-01
9.9898565250064852e-01
9.9899792582737046e-01
9.9900927580245713e-01
9.9902030884695758e-01
9.9903107611644493e-01
9.9904225207831154e-01
9.9905388877979029e-01
9.9906601017488972e-01
9.9907828023553968e-01
9.9909024931925050e-01
9.9910157124075549e-01
9.9911252152116015e-01
9.9912360017440316e-01
9.9913599605435777e-01
9.9914748019601551e-01
9.9915888072972892e-01
9.9917028511216155e-01
9.9918171539437994e-01
9.9919342662751487e-01
9.9920513254223398e-01
9.9921681821027386e-01
9.9922835338976701e-01
9.9923983349904510e-01
9.9925131304567105e-01
9.9926279214853597e-01
9.9927427134175872e-01
9.9928575002054199e-01
9.9929723556218653e-01
9.9930881237672098e-01
9.9932038381558319e-01
9.9933195175663458e-01
9.9934351679765920e-01
9.9935507924014866e-01
9.9936663933773140e-01
9.9937819721146670e-01
9.9938975301550714e-01
9.9940130663776428e-01
9.9941285809213565e-01
9.9942440760067042e-01
9.9943595525685591e-01
9.9944750098076152e-01
9.9945904485122072e-01
9.9947058688631585e-01
9.9948212702160621e-01
9.9949366541282114e-01
9.9950520239232199e-01
9.9951673749138104e-01
9.9952827080456408e-01
9.9953980239716034e-01
9.9955133232580096e-01
9.9956286062289035e-01
9.9957438736556592e-01
9.9958591263494179e-01
9.9959743637008192e-01
9.9960895866077126e-01
9.9962047949478638e-01
9.9963199886105047e-01
9.9964351680832764e-01
9.9965503338338302e-01
9.9966654861148307e-01
9.9967806254717129e-01
9.9968957518472845e-01
9.9970108652564382e-01
9.9971259663255585e-01
9.9972410548423829e-01
9.9973561305143321e-01
9.9974711958322082e-01
9.9975862458601739e-01
9.9977012848572988e-01
9.9978163140535459e-01
9.9979313322573082e-01
9.9980463376611961e-01
9.9981613266611913e-01
9.9982763136582153e-01
9.9983912944338038e-01
9.9985062673612690e-01
9.9986212232834593e-01
9.9987361687436560e-01
9.9988511020749604e-01
9.9989660293355376e-01
9.9990809530122449e-01
9.9991958600966480e-01
9.9993107602699571e-01
9.9994256527650205e-01
9.9995405371510770e-01
9.9996554139318095e-01
9.9997702813590661e-01
9.9998851414512147e-01
1.0000000001564979e+00


SCALARS iters float
LOOKUP_TABLE default
3.0000000000000000e+00
3.0000000000000000e+00
3.0000000000000000e+00
3.0000000000000000e+00
3.0000000000000000e+00
3.0000000000000000e+00
3.0000000000000000e+00
3.0000000000000000e+00
3.0000000000000000e+00
3.0000000000000000e+00
3.0000000000000000e+00
3.0000000000000000e+00
3.0000000000000000e+00
3.0000000000000000e+00
3.0000000000000000e+00
3.0000000000000000e+00
3.0000000000000000e+00
3.0000000000000000e+00
3.0000000000000000e+00
3.0000000000000000e+00
3.0000000000000000e+00
3.0000000000000000e+00
3.0000000000000000e+00
3.0000000000000000e+00
3.0000000000000000e+00
3.0000000000000000e+00
3.0000000000000000e+00
3.0000000000000000e+00
3.0000000000000000e+00
3.0000000000000000e+00
3.0000000000000000e+00
3.0000000000000000e+00
3.0000000000000000e+00
3.0000000000000000e+00
3.0000000000000000e+00
3.0000000000000000e+00
3.0000000000000000e+00
3.0000000000000000e+00
3.0000000000000000e+00
3.0000000000000000e+00
3.0000000000000000e+00
3.0000000000000000e+00
3.0000000000000000e+00
3.0000000000000000e+00
3.0000000000000000e+00
3.0000000000000000e+00
3.0000000000000000e+00
3.0000000000000000e+00
3.0000000000000000e+00
3.0000000000000000e+00
3.0000000000000000e+00
3.0000000000000000e+00
3.0000000000000000e+00
3.0000000000000000e+00
3.0000000000000000e+00
3.0000000000000000e+00
3.0000000000000000e+00
3.0000000000000000e+00
3.0000000000000000e+00
3.0000000000000000e+00
3.0000000000000000e+00
3.0000000000000000e+00
3.0000000000000000e+00
3.0000000000000000e+00
3.0000000000000000e+00
3.0000000000000000e+00
3.0000000000000000e+00
3.0000000000000000e+00
3.0000000000000000e+00
3.0000000000000000e+00
3.0000000000000000e+00
3.0000000000000000e+00
3.0000000000000000e+00
3.0000000000000000e+00
3.0000000000000000e+00
3.0000000000000000e+00
3.0000000000000000e+00
3.0000000000000000e+00
3.0000000000000000e+00
3.0000000000000000e+00
3.0000000000000000e+00
3.0000000000000000e+00
3.0000000000000000e+00
3.0000000000000000e+00
3.0000000000000000e+00
3.0000000000000000e+00
3.0000000000000000e+00
3.0000000000000000e+00
3.0000000000000000e+00
3.0000000000000000e+00
3.0000000000000000e+00
3.0000000000000000e+00
3.0000000000000000e+00
3.0000000000000000e+00
3.0000000000000000e+00
3.0000000000000000e+00
3.0000000000000000e+00
3.0000000000000000e+00
3.0000000000000000e+00
3.0000000000000000e+00
3.0000000000000000e+00


