# vtk DataFile Version 2.0

ASCII

DATASET UNSTRUCTURED_GRID

POINTS 101 float

0.0000000000000000e+00 0.0000000000000000e+00 0.0000000000000000e+00
1.0000000000000001e-01 0.0000000000000000e+00 0.0000000000000000e+00
2.0000000000000001e-01 0.0000000000000000e+00 0.0000000000000000e+00
3.0000000000000004e-01 0.0000000000000000e+00 0.0000000000000000e+00
4.0000000000000002e-01 0.0000000000000000e+00 0.0000000000000000e+00
5.0000000000000000e-01 0.0000000000000000e+00 0.0000000000000000e+00
6.0000000000000009e-01 0.0000000000000000e+00 0.0000000000000000e+00
7.0000000000000007e-01 0.0000000000000000e+00 0.0000000000000000e+00
8.0000000000000004e-01 0.0000000000000000e+00 0.0000000000000000e+00
9.0000000000000002e-01 0.0000000000000000e+00 0.0000000000000000e+00
1.0000000000000000e+00 0.0000000000000000e+00 0.0000000000000000e+00
1.1000000000000001e+00 0.0000000000000000e+00 0.0000000000000000e+00
1.2000000000000002e+00 0.0000000000000000e+00 0.0000000000000000e+00
1.3000000000000000e+00 0.0000000000000000e+00 0.0000000000000000e+00
1.4000000000000001e+00 0.0000000000000000e+00 0.0000000000000000e+00
1.5000000000000000e+00 0.0000000000000000e+00 0.0000000000000000e+00
1.6000000000000001e+00 0.0000000000000000e+00 0.0000000000000000e+00
1.7000000000000002e+00 0.0000000000000000e+00 0.0000000000000000e+00
1.8000000000000000e+00 0.0000000000000000e+00 0.0000000000000000e+00
1.9000000000000001e+00 0.0000000000000000e+00 0.0000000000000000e+00
2.0000000000000000e+00 0.0000000000000000e+00 0.0000000000000000e+00
2.1000000000000001e+00 0.0000000000000000e+00 0.0000000000000000e+00
2.2000000000000002e+00 0.0000000000000000e+00 0.0000000000000000e+00
2.3000000000000003e+00 0.0000000000000000e+00 0.0000000000000000e+00
2.4000000000000004e+00 0.0000000000000000e+00 0.0000000000000000e+00
2.5000000000000000e+00 0.0000000000000000e+00 0.0000000000000000e+00
2.6000000000000001e+00 0.0000000000000000e+00 0.0000000000000000e+00
2.7000000000000002e+00 0.0000000000000000e+00 0.0000000000000000e+00
2.8000000000000003e+00 0.0000000000000000e+00 0.0000000000000000e+00
2.9000000000000004e+00 0.0000000000000000e+00 0.0000000000000000e+00
3.0000000000000000e+00 0.0000000000000000e+00 0.0000000000000000e+00
3.1000000000000001e+00 0.0000000000000000e+00 0.0000000000000000e+00
3.2000000000000002e+00 0.0000000000000000e+00 0.0000000000000000e+00
3.3000000000000003e+00 0.0000000000000000e+00 0.0000000000000000e+00
3.4000000000000004e+00 0.0000000000000000e+00 0.0000000000000000e+00
3.5000000000000000e+00 0.0000000000000000e+00 0.0000000000000000e+00
3.6000000000000001e+00 0.0000000000000000e+00 0.0000000000000000e+00
3.7000000000000002e+00 0.0000000000000000e+00 0.0000000000000000e+00
3.8000000000000003e+00 0.0000000000000000e+00 0.0000000000000000e+00
3.9000000000000004e+00 0.0000000000000000e+00 0.0000000000000000e+00
4.0000000000000000e+00 0.0000000000000000e+00 0.0000000000000000e+00
4.1000000000000005e+00 0.0000000000000000e+00 0.0000000000000000e+00
4.2000000000000002e+00 0.0000000000000000e+00 0.0000000000000000e+00
4.2999999999999998e+00 0.0000000000000000e+00 0.0000000000000000e+00
4.4000000000000004e+00 0.0000000000000000e+00 0.0000000000000000e+00
4.5000000000000000e+00 0.0000000000000000e+00 0.0000000000000000e+00
4.6000000000000005e+00 0.0000000000000000e+00 0.0000000000000000e+00
4.7000000000000002e+00 0.0000000000000000e+00 0.0000000000000000e+00
4.8000000000000007e+00 0.0000000000000000e+00 0.0000000000000000e+00
4.9000000000000004e+00 0.0000000000000000e+00 0.0000000000000000e+00
5.0000000000000000e+00 0.0000000000000000e+00 0.0000000000000000e+00
5.1000000000000005e+00 0.0000000000000000e+00 0.0000000000000000e+00
5.2000000000000002e+00 0.0000000000000000e+00 0.0000000000000000e+00
5.3000000000000007e+00 0.0000000000000000e+00 0.0000000000000000e+00
5.4000000000000004e+00 0.0000000000000000e+00 0.0000000000000000e+00
5.5000000000000000e+00 0.0000000000000000e+00 0.0000000000000000e+00
5.6000000000000005e+00 0.0000000000000000e+00 0.0000000000000000e+00
5.7000000000000002e+00 0.0000000000000000e+00 0.0000000000000000e+00
5.8000000000000007e+00 0.0000000000000000e+00 0.0000000000000000e+00
5.9000000000000004e+00 0.0000000000000000e+00 0.0000000000000000e+00
6.0000000000000000e+00 0.0000000000000000e+00 0.0000000000000000e+00
6.1000000000000005e+00 0.0000000000000000e+00 0.0000000000000000e+00
6.2000000000000002e+00 0.0000000000000000e+00 0.0000000000000000e+00
6.3000000000000007e+00 0.0000000000000000e+00 0.0000000000000000e+00
6.4000000000000004e+00 0.0000000000000000e+00 0.0000000000000000e+00
6.5000000000000000e+00 0.0000000000000000e+00 0.0000000000000000e+00
6.6000000000000005e+00 0.0000000000000000e+00 0.0000000000000000e+00
6.7000000000000002e+00 0.0000000000000000e+00 0.0000000000000000e+00
6.8000000000000007e+00 0.0000000000000000e+00 0.0000000000000000e+00
6.9000000000000004e+00 0.0000000000000000e+00 0.0000000000000000e+00
7.0000000000000000e+00 0.0000000000000000e+00 0.0000000000000000e+00
7.1000000000000005e+00 0.0000000000000000e+00 0.0000000000000000e+00
7.2000000000000002e+00 0.0000000000000000e+00 0.0000000000000000e+00
7.3000000000000007e+00 0.0000000000000000e+00 0.0000000000000000e+00
7.4000000000000004e+00 0.0000000000000000e+00 0.0000000000000000e+00
7.5000000000000000e+00 0.0000000000000000e+00 0.0000000000000000e+00
7.6000000000000005e+00 0.0000000000000000e+00 0.0000000000000000e+00
7.7000000000000002e+00 0.0000000000000000e+00 0.0000000000000000e+00
7.8000000000000007e+00 0.0000000000000000e+00 0.0000000000000000e+00
7.9000000000000004e+00 0.0000000000000000e+00 0.0000000000000000e+00
8.0000000000000000e+00 0.0000000000000000e+00 0.0000000000000000e+00
8.0999999999999996e+00 0.0000000000000000e+00 0.0000000000000000e+00
8.2000000000000011e+00 0.0000000000000000e+00 0.0000000000000000e+00
8.3000000000000007e+00 0.0000000000000000e+00 0.0000000000000000e+00
8.4000000000000004e+00 0.0000000000000000e+00 0.0000000000000000e+00
8.5000000000000000e+00 0.0000000000000000e+00 0.0000000000000000e+00
8.5999999999999996e+00 0.0000000000000000e+00 0.0000000000000000e+00
8.7000000000000011e+00 0.0000000000000000e+00 0.0000000000000000e+00
8.8000000000000007e+00 0.0000000000000000e+00 0.0000000000000000e+00
8.9000000000000004e+00 0.0000000000000000e+00 0.0000000000000000e+00
9.0000000000000000e+00 0.0000000000000000e+00 0.0000000000000000e+00
9.0999999999999996e+00 0.0000000000000000e+00 0.0000000000000000e+00
9.2000000000000011e+00 0.0000000000000000e+00 0.0000000000000000e+00
9.3000000000000007e+00 0.0000000000000000e+00 0.0000000000000000e+00
9.4000000000000004e+00 0.0000000000000000e+00 0.0000000000000000e+00
9.5000000000000000e+00 0.0000000000000000e+00 0.0000000000000000e+00
9.6000000000000014e+00 0.0000000000000000e+00 0.0000000000000000e+00
9.7000000000000011e+00 0.0000000000000000e+00 0.0000000000000000e+00
9.8000000000000007e+00 0.0000000000000000e+00 0.0000000000000000e+00
9.9000000000000004e+00 0.0000000000000000e+00 0.0000000000000000e+00
1.0000000000000000e+01 0.0000000000000000e+00 0.0000000000000000e+00

POINT_DATA 101

VECTORS velocity float
4.1828682054628228e+00 0.0000000000000000e+00 0.0000000000000000e+00
4.1826732988403554e+00 0.0000000000000000e+00 0.0000000000000000e+00
4.1824735485980469e+00 0.0000000000000000e+00 0.0000000000000000e+00
4.1822708654952363e+00 0.0000000000000000e+00 0.0000000000000000e+00
4.1820674990514304e+00 0.0000000000000000e+00 0.0000000000000000e+00
4.1818655535410150e+00 0.0000000000000000e+00 0.0000000000000000e+00
4.1816676261022572e+00 0.0000000000000000e+00 0.0000000000000000e+00
4.1814750710266964e+00 0.0000000000000000e+00 0.0000000000000000e+00
4.1812846366271028e+00 0.0000000000000000e+00 0.0000000000000000e+00
4.1810934191482652e+00 0.0000000000000000e+00 0.0000000000000000e+00
4.1809025836284786e+00 0.0000000000000000e+00 0.0000000000000000e+00
4.1807132071333655e+00 0.0000000000000000e+00 0.0000000000000000e+00
4.1805260221439111e+00 0.0000000000000000e+00 0.0000000000000000e+00
4.1803428029208245e+00 0.0000000000000000e+00 0.0000000000000000e+00
4.1801639869652840e+00 0.0000000000000000e+00 0.0000000000000000e+00
4.1799891338916959e+00 0.0000000000000000e+00 0.0000000000000000e+00
4.1798160737523080e+00 0.0000000000000000e+00 0.0000000000000000e+00
4.1796427763876673e+00 0.0000000000000000e+00 0.0000000000000000e+00
4.1794704333299215e+00 0.0000000000000000e+00 0.0000000000000000e+00
4.1792998998937847e+00 0.0000000000000000e+00 0.0000000000000000e+00
4.1791314269472943e+00 0.0000000000000000e+00 0.0000000000000000e+00
4.1789657569594025e+00 0.0000000000000000e+00 0.0000000000000000e+00
4.1788035772475878e+00 0.0000000000000000e+00 0.0000000000000000e+00
4.1786452042446740e+00 0.0000000000000000e+00 0.0000000000000000e+00
4.1784891070412300e+00 0.0000000000000000e+00 0.0000000000000000e+00
4.1783343972468323e+00 0.0000000000000000e+00 0.0000000000000000e+00
4.1781818934473662e+00 0.0000000000000000e+00 0.0000000000000000e+00
4.1780316472979226e+00 0.0000000000000000e+00 0.0000000000000000e+00
4.1778837730584533e+00 0.0000000000000000e+00 0.0000000000000000e+00
4.1777377819490882e+00 0.0000000000000000e+00 0.0000000000000000e+00
4.1775933269927270e+00 0.0000000000000000e+00 0.0000000000000000e+00
4.1774507787230775e+00 0.0000000000000000e+00 0.0000000000000000e+00
4.1773105670966135e+00 0.0000000000000000e+00 0.0000000000000000e+00
4.1771731598043731e+00 0.0000000000000000e+00 0.0000000000000000e+00
4.1770383966671520e+00 0.0000000000000000e+00 0.0000000000000000e+00
4.1769060575032606e+00 0.0000000000000000e+00 0.0000000000000000e+00
4.1767760652267425e+00 0.0000000000000000e+00 0.0000000000000000e+00
4.1766483575621010e+00 0.0000000000000000e+00 0.0000000000000000e+00
4.1765229693218879e+00 0.0000000000000000e+00 0.0000000000000000e+00
4.1763997237621275e+00 0.0000000000000000e+00 0.0000000000000000e+00
4.1762784992460764e+00 0.0000000000000000e+00 0.0000000000000000e+00
4.1761594582325774e+00 0.0000000000000000e+00 0.0000000000000000e+00
4.1760426567225064e+00 0.0000000000000000e+00 0.0000000000000000e+00
4.1759281201300862e+00 0.0000000000000000e+00 0.0000000000000000e+00
4.1758158598423156e+00 0.0000000000000000e+00 0.0000000000000000e+00
4.1757058805904093e+00 0.0000000000000000e+00 0.0000000000000000e+00
4.1755981840421086e+00 0.0000000000000000e+00 0.0000000000000000e+00
4.1754927702221956e+00 0.0000000000000000e+00 0.0000000000000000e+00
4.1753896391241270e+00 0.0000000000000000e+00 0.0000000000000000e+00
4.1752887903485840e+00 0.0000000000000000e+00 0.0000000000000000e+00
4.1751902227895572e+00 0.0000000000000000e+00 0.0000000000000000e+00
4.1750939359119235e+00 0.0000000000000000e+00 0.0000000000000000e+00
4.1749999288459598e+00 0.0000000000000000e+00 0.0000000000000000e+00
4.1749082005418403e+00 0.0000000000000000e+00 0.0000000000000000e+00
4.1748187503484342e+00 0.0000000000000000e+00 0.0000000000000000e+00
4.1747315777609293e+00 0.0000000000000000e+00 0.0000000000000000e+00
4.1746466815438366e+00 0.0000000000000000e+00 0.0000000000000000e+00
4.1745640607807930e+00 0.0000000000000000e+00 0.0000000000000000e+00
4.1744837152443957e+00 0.0000000000000000e+00 0.0000000000000000e+00
4.1744056441644011e+00 0.0000000000000000e+00 0.0000000000000000e+00
4.1743298466103971e+00 0.0000000000000000e+00 0.0000000000000000e+00
4.1742563219438935e+00 0.0000000000000000e+00 0.0000000000000000e+00
4.1741850695125944e+00 0.0000000000000000e+00 0.0000000000000000e+00
4.1741160883473354e+00 0.0000000000000000e+00 0.0000000000000000e+00
4.1740493776736933e+00 0.0000000000000000e+00 0.0000000000000000e+00
4.1739849367958026e+00 0.0000000000000000e+00 0.0000000000000000e+00
4.1739227649326383e+00 0.0000000000000000e+00 0.0000000000000000e+00
4.1738628614417124e+00 0.0000000000000000e+00 0.0000000000000000e+00
4.1738052256599216e+00 0.0000000000000000e+00 0.0000000000000000e+00
4.1737498568290752e+00 0.0000000000000000e+00 0.0000000000000000e+00
4.1736967542238617e+00 0.0000000000000000e+00 0.0000000000000000e+00
4.1736459171479305e+00 0.0000000000000000e+00 0.0000000000000000e+00
4.1735973449063595e+00 0.0000000000000000e+00 0.0000000000000000e+00
4.1735510368054776e+00 0.0000000000000000e+00 0.0000000000000000e+00
4.1735069921709869e+00 0.0000000000000000e+00 0.0000000000000000e+00
4.1734652102274659e+00 0.0000000000000000e+00 0.0000000000000000e+00
4.1734256904118325e+00 0.0000000000000000e+00 0.0000000000000000e+00
4.1733884318964591e+00 0.0000000000000000e+00 0.0000000000000000e+00
4.1733534340771739e+00 0.0000000000000000e+00 0.0000000000000000e+00
4.1733206966357876e+00 0.0000000000000000e+00 0.0000000000000000e+00
4.1732902186532339e+00 0.0000000000000000e+00 0.0000000000000000e+00
4.1732619994152360e+00 0.0000000000000000e+00 0.0000000000000000e+00
4.1732360381719236e+00 0.0000000000000000e+00 0.0000000000000000e+00
4.1732123347844974e+00 0.0000000000000000e+00 0.0000000000000000e+00
4.1731908884199989e+00 0.0000000000000000e+00 0.0000000000000000e+00
4.1731716977477165e+00 0.0000000000000000e+00 0.0000000000000000e+00
4.1731547621806522e+00 0.0000000000000000e+00 0.0000000000000000e+00
4.1731400813722654e+00 0.0000000000000000e+00 0.0000000000000000e+00
4.1731276549681233e+00 0.0000000000000000e+00 0.0000000000000000e+00
4.1731174822929082e+00 0.0000000000000000e+00 0.0000000000000000e+00
4.1731095629588975e+00 0.0000000000000000e+00 0.0000000000000000e+00
4.1731038969557295e+00 0.0000000000000000e+00 0.0000000000000000e+00
4.1731004808865544e+00 0.0000000000000000e+00 0.0000000000000000e+00
4.1730993211366680e+00 0.0000000000000000e+00 0.0000000000000000e+00
4.1731004010259882e+00 0.0000000000000000e+00 0.0000000000000000e+00
4.1731037571544469e+00 0.0000000000000000e+00 0.0000000000000000e+00
4.1731092984120979e+00 0.0000000000000000e+00 0.0000000000000000e+00
4.1731172444977753e+00 0.0000000000000000e+00 0.0000000000000000e+00
4.1731270588333951e+00 0.0000000000000000e+00 0.0000000000000000e+00
4.1731400443363027e+00 0.0000000000000000e+00 0.0000000000000000e+00
4.1731530298392103e+00 0.0000000000000000e+00 0.0000000000000000e+00


SCALARS pressure float
LOOKUP_TABLE default
4.7411923661673994e+00
4.6961076460318738e+00
4.6510229258963482e+00
4.6059056923284487e+00
4.5607467305926734e+00
4.5155375275320075e+00
4.4702698742962408e+00
4.4249335327772785e+00
4.3795230210789837e+00
4.3340508104097699e+00
4.2885293578900132e+00
4.2429556717136645e+00
4.1973257928178844e+00
4.1516369179351713e+00
4.1058823213178339e+00
4.0600601365638784e+00
4.0141723359465056e+00
3.9682280681843918e+00
3.9222365752936015e+00
3.8761944871922664e+00
3.8300984424013911e+00
3.7839475091138346e+00
3.7377392891653902e+00
3.6914715050354125e+00
3.6451432770363161e+00
3.5987603601221068e+00
3.5523267786673403e+00
3.5058404730574373e+00
3.4593015953759756e+00
3.4127101836199447e+00
3.3660685709934803e+00
3.3193787450682897e+00
3.2726399161453825e+00
3.2258507850292117e+00
3.1790098336103991e+00
3.1321179287995924e+00
3.0851763967220522e+00
3.0381860691057399e+00
2.9911476805628228e+00
2.9440615944016510e+00
2.8969289315223743e+00
2.8497506392258609e+00
2.8025265888594757e+00
2.7552569663010771e+00
2.7079421034460567e+00
2.6605823990452060e+00
2.6131782831984345e+00
2.5657302004188951e+00
2.5182386027746486e+00
2.4707039430911171e+00
2.4231266757008747e+00
2.3755072576899630e+00
2.3278461441307718e+00
2.2801437911906230e+00
2.2324006558038785e+00
2.1846171934049221e+00
2.1367938587256465e+00
2.0889311091550300e+00
2.0410294010299039e+00
1.9930891879711237e+00
1.9451109254122687e+00
1.8970950695343749e+00
1.8490420754034691e+00
1.8009523979851094e+00
1.7528264934020170e+00
1.7046648170909648e+00
1.6564678240931083e+00
1.6082359696916042e+00
1.5599697086216679e+00
1.5116694956096108e+00
1.4633357856981286e+00
1.4149690337868739e+00
1.3665696946003096e+00
1.3181382227921850e+00
1.2696750729648003e+00
1.2211806995960108e+00
1.1726555574840869e+00
1.1241001006170026e+00
1.0755147838503054e+00
1.0269000612175216e+00
9.7825638559659434e-01
9.2958421192415230e-01
8.8088399446468557e-01
8.3215618750341325e-01
7.8340124308625669e-01
7.3461961560344036e-01
6.8581176127006949e-01
6.3697813348847976e-01
5.8811918472284030e-01
5.3923536746779388e-01
4.9032713535780215e-01
4.4139494071942587e-01
3.9243923425957011e-01
3.4346047913060113e-01
2.9445910341869203e-01
2.4543561727347568e-01
1.9639034141864595e-01
1.4732405056528156e-01
9.8236414228997718e-02
4.9129789636075491e-02
0.0000000000000000e+00


SCALARS diameter float
LOOKUP_TABLE default
1.0004295214923327e+00
1.0004248794161787e+00
1.0004200193848285e+00
1.0004161855820359e+00
1.0004126894721792e+00
1.0004091629586176e+00
1.0004048660692657e+00
1.0003994749018330e+00
1.0003940716560962e+00
1.0003902227548327e+00
1.0003868220930672e+00
1.0003833964811670e+00
1.0003799164681357e+00
1.0003758950815749e+00
1.0003710484054751e+00
1.0003659898200550e+00
1.0003609776611282e+00
1.0003572132726459e+00
1.0003536357808855e+00
1.0003499862236391e+00
1.0003463129172432e+00
1.0003425094326959e+00
1.0003382124052718e+00
1.0003335216536371e+00
1.0003287114710082e+00
1.0003245883251028e+00
1.0003203562502465e+00
1.0003160696560980e+00
1.0003117810050970e+00
1.0003075197178399e+00
1.0003036124591029e+00
1.0002996932465631e+00
1.0002957463370952e+00
1.0002915366225074e+00
1.0002872195483685e+00
1.0002828980866705e+00
1.0002785716435507e+00
1.0002742401892097e+00
1.0002699035463047e+00
1.0002655703089727e+00
1.0002613556772770e+00
1.0002571323501059e+00
1.0002529014469770e+00
1.0002486636611820e+00
1.0002444192791704e+00
1.0002401685430107e+00
1.0002359116505541e+00
1.0002316488191101e+00
1.0002273801754282e+00
1.0002231055609168e+00
1.0002188254372963e+00
1.0002145397584494e+00
1.0002102486217870e+00
1.0002059523087479e+00
1.0002016508373623e+00
1.0001973442104648e+00
1.0001930326406820e+00
1.0001887164595411e+00
1.0001843954004517e+00
1.0001800696336787e+00
1.0001757393723181e+00
1.0001714046787571e+00
1.0001670655806050e+00
1.0001627222957707e+00
1.0001583749641310e+00
1.0001540236158268e+00
1.0001496684120970e+00
1.0001453094163948e+00
1.0001409467095173e+00
1.0001365804198827e+00
1.0001322106675326e+00
1.0001278375365286e+00
1.0001234611397611e+00
1.0001190815709713e+00
1.0001146989383563e+00
1.0001103133517761e+00
1.0001059249256501e+00
1.0001015337040686e+00
1.0000971399274610e+00
1.0000927434102591e+00
1.0000883444302378e+00
1.0000839431302149e+00
1.0000795395762392e+00
1.0000751338065543e+00
1.0000707257486026e+00
1.0000663160159204e+00
1.0000619045244645e+00
1.0000574913183584e+00
1.0000530763682101e+00
1.0000486597851359e+00
1.0000442416975033e+00
1.0000398218744446e+00
1.0000354012262964e+00
1.0000309788821820e+00
1.0000265556680004e+00
1.0000221315136484e+00
1.0000177065000646e+00
1.0000132807294682e+00
1.0000088542855374e+00
1.0000044273661157e+00
1.0000000000210838e+00


SCALARS iters float
LOOKUP_TABLE default
4.0000000000000000e+00
4.0000000000000000e+00
4.0000000000000000e+00
4.0000000000000000e+00
4.0000000000000000e+00
4.0000000000000000e+00
4.0000000000000000e+00
4.0000000000000000e+00
4.0000000000000000e+00
4.0000000000000000e+00
4.0000000000000000e+00
4.0000000000000000e+00
4.0000000000000000e+00
4.0000000000000000e+00
4.0000000000000000e+00
4.0000000000000000e+00
4.0000000000000000e+00
4.0000000000000000e+00
4.0000000000000000e+00
4.0000000000000000e+00
4.0000000000000000e+00
4.0000000000000000e+00
4.0000000000000000e+00
4.0000000000000000e+00
4.0000000000000000e+00
4.0000000000000000e+00
4.0000000000000000e+00
4.0000000000000000e+00
4.0000000000000000e+00
4.0000000000000000e+00
4.0000000000000000e+00
4.0000000000000000e+00
4.0000000000000000e+00
4.0000000000000000e+00
4.0000000000000000e+00
4.0000000000000000e+00
4.0000000000000000e+00
4.0000000000000000e+00
4.0000000000000000e+00
4.0000000000000000e+00
4.0000000000000000e+00
4.0000000000000000e+00
4.0000000000000000e+00
4.0000000000000000e+00
4.0000000000000000e+00
4.0000000000000000e+00
4.0000000000000000e+00
4.0000000000000000e+00
4.0000000000000000e+00
4.0000000000000000e+00
4.0000000000000000e+00
4.0000000000000000e+00
4.0000000000000000e+00
4.0000000000000000e+00
4.0000000000000000e+00
4.0000000000000000e+00
4.0000000000000000e+00
4.0000000000000000e+00
4.0000000000000000e+00
4.0000000000000000e+00
4.0000000000000000e+00
4.0000000000000000e+00
4.0000000000000000e+00
4.0000000000000000e+00
4.0000000000000000e+00
4.0000000000000000e+00
4.0000000000000000e+00
4.0000000000000000e+00
4.0000000000000000e+00
4.0000000000000000e+00
4.0000000000000000e+00
4.0000000000000000e+00
4.0000000000000000e+00
4.0000000000000000e+00
4.0000000000000000e+00
4.0000000000000000e+00
4.0000000000000000e+00
4.0000000000000000e+00
4.0000000000000000e+00
4.0000000000000000e+00
4.0000000000000000e+00
4.0000000000000000e+00
4.0000000000000000e+00
4.0000000000000000e+00
4.0000000000000000e+00
4.0000000000000000e+00
4.0000000000000000e+00
4.0000000000000000e+00
4.0000000000000000e+00
4.0000000000000000e+00
4.0000000000000000e+00
4.0000000000000000e+00
4.0000000000000000e+00
4.0000000000000000e+00
4.0000000000000000e+00
4.0000000000000000e+00
4.0000000000000000e+00
4.0000000000000000e+00
4.0000000000000000e+00
4.0000000000000000e+00
4.0000000000000000e+00


