# vtk DataFile Version 2.0

ASCII

DATASET UNSTRUCTURED_GRID

POINTS 101 float

0.0000000000000000e+00 0.0000000000000000e+00 0.0000000000000000e+00
1.0000000000000001e-01 0.0000000000000000e+00 0.0000000000000000e+00
2.0000000000000001e-01 0.0000000000000000e+00 0.0000000000000000e+00
3.0000000000000004e-01 0.0000000000000000e+00 0.0000000000000000e+00
4.0000000000000002e-01 0.0000000000000000e+00 0.0000000000000000e+00
5.0000000000000000e-01 0.0000000000000000e+00 0.0000000000000000e+00
6.0000000000000009e-01 0.0000000000000000e+00 0.0000000000000000e+00
7.0000000000000007e-01 0.0000000000000000e+00 0.0000000000000000e+00
8.0000000000000004e-01 0.0000000000000000e+00 0.0000000000000000e+00
9.0000000000000002e-01 0.0000000000000000e+00 0.0000000000000000e+00
1.0000000000000000e+00 0.0000000000000000e+00 0.0000000000000000e+00
1.1000000000000001e+00 0.0000000000000000e+00 0.0000000000000000e+00
1.2000000000000002e+00 0.0000000000000000e+00 0.0000000000000000e+00
1.3000000000000000e+00 0.0000000000000000e+00 0.0000000000000000e+00
1.4000000000000001e+00 0.0000000000000000e+00 0.0000000000000000e+00
1.5000000000000000e+00 0.0000000000000000e+00 0.0000000000000000e+00
1.6000000000000001e+00 0.0000000000000000e+00 0.0000000000000000e+00
1.7000000000000002e+00 0.0000000000000000e+00 0.0000000000000000e+00
1.8000000000000000e+00 0.0000000000000000e+00 0.0000000000000000e+00
1.9000000000000001e+00 0.0000000000000000e+00 0.0000000000000000e+00
2.0000000000000000e+00 0.0000000000000000e+00 0.0000000000000000e+00
2.1000000000000001e+00 0.0000000000000000e+00 0.0000000000000000e+00
2.2000000000000002e+00 0.0000000000000000e+00 0.0000000000000000e+00
2.3000000000000003e+00 0.0000000000000000e+00 0.0000000000000000e+00
2.4000000000000004e+00 0.0000000000000000e+00 0.0000000000000000e+00
2.5000000000000000e+00 0.0000000000000000e+00 0.0000000000000000e+00
2.6000000000000001e+00 0.0000000000000000e+00 0.0000000000000000e+00
2.7000000000000002e+00 0.0000000000000000e+00 0.0000000000000000e+00
2.8000000000000003e+00 0.0000000000000000e+00 0.0000000000000000e+00
2.9000000000000004e+00 0.0000000000000000e+00 0.0000000000000000e+00
3.0000000000000000e+00 0.0000000000000000e+00 0.0000000000000000e+00
3.1000000000000001e+00 0.0000000000000000e+00 0.0000000000000000e+00
3.2000000000000002e+00 0.0000000000000000e+00 0.0000000000000000e+00
3.3000000000000003e+00 0.0000000000000000e+00 0.0000000000000000e+00
3.4000000000000004e+00 0.0000000000000000e+00 0.0000000000000000e+00
3.5000000000000000e+00 0.0000000000000000e+00 0.0000000000000000e+00
3.6000000000000001e+00 0.0000000000000000e+00 0.0000000000000000e+00
3.7000000000000002e+00 0.0000000000000000e+00 0.0000000000000000e+00
3.8000000000000003e+00 0.0000000000000000e+00 0.0000000000000000e+00
3.9000000000000004e+00 0.0000000000000000e+00 0.0000000000000000e+00
4.0000000000000000e+00 0.0000000000000000e+00 0.0000000000000000e+00
4.1000000000000005e+00 0.0000000000000000e+00 0.0000000000000000e+00
4.2000000000000002e+00 0.0000000000000000e+00 0.0000000000000000e+00
4.2999999999999998e+00 0.0000000000000000e+00 0.0000000000000000e+00
4.4000000000000004e+00 0.0000000000000000e+00 0.0000000000000000e+00
4.5000000000000000e+00 0.0000000000000000e+00 0.0000000000000000e+00
4.6000000000000005e+00 0.0000000000000000e+00 0.0000000000000000e+00
4.7000000000000002e+00 0.0000000000000000e+00 0.0000000000000000e+00
4.8000000000000007e+00 0.0000000000000000e+00 0.0000000000000000e+00
4.9000000000000004e+00 0.0000000000000000e+00 0.0000000000000000e+00
5.0000000000000000e+00 0.0000000000000000e+00 0.0000000000000000e+00
5.1000000000000005e+00 0.0000000000000000e+00 0.0000000000000000e+00
5.2000000000000002e+00 0.0000000000000000e+00 0.0000000000000000e+00
5.3000000000000007e+00 0.0000000000000000e+00 0.0000000000000000e+00
5.4000000000000004e+00 0.0000000000000000e+00 0.0000000000000000e+00
5.5000000000000000e+00 0.0000000000000000e+00 0.0000000000000000e+00
5.6000000000000005e+00 0.0000000000000000e+00 0.0000000000000000e+00
5.7000000000000002e+00 0.0000000000000000e+00 0.0000000000000000e+00
5.8000000000000007e+00 0.0000000000000000e+00 0.0000000000000000e+00
5.9000000000000004e+00 0.0000000000000000e+00 0.0000000000000000e+00
6.0000000000000000e+00 0.0000000000000000e+00 0.0000000000000000e+00
6.1000000000000005e+00 0.0000000000000000e+00 0.0000000000000000e+00
6.2000000000000002e+00 0.0000000000000000e+00 0.0000000000000000e+00
6.3000000000000007e+00 0.0000000000000000e+00 0.0000000000000000e+00
6.4000000000000004e+00 0.0000000000000000e+00 0.0000000000000000e+00
6.5000000000000000e+00 0.0000000000000000e+00 0.0000000000000000e+00
6.6000000000000005e+00 0.0000000000000000e+00 0.0000000000000000e+00
6.7000000000000002e+00 0.0000000000000000e+00 0.0000000000000000e+00
6.8000000000000007e+00 0.0000000000000000e+00 0.0000000000000000e+00
6.9000000000000004e+00 0.0000000000000000e+00 0.0000000000000000e+00
7.0000000000000000e+00 0.0000000000000000e+00 0.0000000000000000e+00
7.1000000000000005e+00 0.0000000000000000e+00 0.0000000000000000e+00
7.2000000000000002e+00 0.0000000000000000e+00 0.0000000000000000e+00
7.3000000000000007e+00 0.0000000000000000e+00 0.0000000000000000e+00
7.4000000000000004e+00 0.0000000000000000e+00 0.0000000000000000e+00
7.5000000000000000e+00 0.0000000000000000e+00 0.0000000000000000e+00
7.6000000000000005e+00 0.0000000000000000e+00 0.0000000000000000e+00
7.7000000000000002e+00 0.0000000000000000e+00 0.0000000000000000e+00
7.8000000000000007e+00 0.0000000000000000e+00 0.0000000000000000e+00
7.9000000000000004e+00 0.0000000000000000e+00 0.0000000000000000e+00
8.0000000000000000e+00 0.0000000000000000e+00 0.0000000000000000e+00
8.0999999999999996e+00 0.0000000000000000e+00 0.0000000000000000e+00
8.2000000000000011e+00 0.0000000000000000e+00 0.0000000000000000e+00
8.3000000000000007e+00 0.0000000000000000e+00 0.0000000000000000e+00
8.4000000000000004e+00 0.0000000000000000e+00 0.0000000000000000e+00
8.5000000000000000e+00 0.0000000000000000e+00 0.0000000000000000e+00
8.5999999999999996e+00 0.0000000000000000e+00 0.0000000000000000e+00
8.7000000000000011e+00 0.0000000000000000e+00 0.0000000000000000e+00
8.8000000000000007e+00 0.0000000000000000e+00 0.0000000000000000e+00
8.9000000000000004e+00 0.0000000000000000e+00 0.0000000000000000e+00
9.0000000000000000e+00 0.0000000000000000e+00 0.0000000000000000e+00
9.0999999999999996e+00 0.0000000000000000e+00 0.0000000000000000e+00
9.2000000000000011e+00 0.0000000000000000e+00 0.0000000000000000e+00
9.3000000000000007e+00 0.0000000000000000e+00 0.0000000000000000e+00
9.4000000000000004e+00 0.0000000000000000e+00 0.0000000000000000e+00
9.5000000000000000e+00 0.0000000000000000e+00 0.0000000000000000e+00
9.6000000000000014e+00 0.0000000000000000e+00 0.0000000000000000e+00
9.7000000000000011e+00 0.0000000000000000e+00 0.0000000000000000e+00
9.8000000000000007e+00 0.0000000000000000e+00 0.0000000000000000e+00
9.9000000000000004e+00 0.0000000000000000e+00 0.0000000000000000e+00
1.0000000000000000e+01 0.0000000000000000e+00 0.0000000000000000e+00

POINT_DATA 101

VECTORS velocity float
3.0087330372022603e+00 0.0000000000000000e+00 0.0000000000000000e+00
3.0075791966766756e+00 0.0000000000000000e+00 0.0000000000000000e+00
3.0063756327355313e+00 0.0000000000000000e+00 0.0000000000000000e+00
3.0051596981830211e+00 0.0000000000000000e+00 0.0000000000000000e+00
3.0039452192629819e+00 0.0000000000000000e+00 0.0000000000000000e+00
3.0027381723559503e+00 0.0000000000000000e+00 0.0000000000000000e+00
3.0015405676781080e+00 0.0000000000000000e+00 0.0000000000000000e+00
3.0003555828279094e+00 0.0000000000000000e+00 0.0000000000000000e+00
2.9991841686628260e+00 0.0000000000000000e+00 0.0000000000000000e+00
2.9980238787602809e+00 0.0000000000000000e+00 0.0000000000000000e+00
2.9968749772331438e+00 0.0000000000000000e+00 0.0000000000000000e+00
2.9957381329928516e+00 0.0000000000000000e+00 0.0000000000000000e+00
2.9946137145077971e+00 0.0000000000000000e+00 0.0000000000000000e+00
2.9935025770649535e+00 0.0000000000000000e+00 0.0000000000000000e+00
2.9924050757564955e+00 0.0000000000000000e+00 0.0000000000000000e+00
2.9913212661803406e+00 0.0000000000000000e+00 0.0000000000000000e+00
2.9902496686129085e+00 0.0000000000000000e+00 0.0000000000000000e+00
2.9891884716894381e+00 0.0000000000000000e+00 0.0000000000000000e+00
2.9881384162789639e+00 0.0000000000000000e+00 0.0000000000000000e+00
2.9870999895809707e+00 0.0000000000000000e+00 0.0000000000000000e+00
2.9860735020718669e+00 0.0000000000000000e+00 0.0000000000000000e+00
2.9850600352674399e+00 0.0000000000000000e+00 0.0000000000000000e+00
2.9840613661067468e+00 0.0000000000000000e+00 0.0000000000000000e+00
2.9830785462613569e+00 0.0000000000000000e+00 0.0000000000000000e+00
2.9821082139612813e+00 0.0000000000000000e+00 0.0000000000000000e+00
2.9811468517072659e+00 0.0000000000000000e+00 0.0000000000000000e+00
2.9801980630236700e+00 0.0000000000000000e+00 0.0000000000000000e+00
2.9792621617121684e+00 0.0000000000000000e+00 0.0000000000000000e+00
2.9783392195562999e+00 0.0000000000000000e+00 0.0000000000000000e+00
2.9774289088730965e+00 0.0000000000000000e+00 0.0000000000000000e+00
2.9765310155534310e+00 0.0000000000000000e+00 0.0000000000000000e+00
2.9756458392399070e+00 0.0000000000000000e+00 0.0000000000000000e+00
2.9747738445073879e+00 0.0000000000000000e+00 0.0000000000000000e+00
2.9739154278364022e+00 0.0000000000000000e+00 0.0000000000000000e+00
2.9730703829723488e+00 0.0000000000000000e+00 0.0000000000000000e+00
2.9722384197286580e+00 0.0000000000000000e+00 0.0000000000000000e+00
2.9714194717794289e+00 0.0000000000000000e+00 0.0000000000000000e+00
2.9706134580071488e+00 0.0000000000000000e+00 0.0000000000000000e+00
2.9698205433424181e+00 0.0000000000000000e+00 0.0000000000000000e+00
2.9690403080318228e+00 0.0000000000000000e+00 0.0000000000000000e+00
2.9682724742932023e+00 0.0000000000000000e+00 0.0000000000000000e+00
2.9675175421838946e+00 0.0000000000000000e+00 0.0000000000000000e+00
2.9667757522534468e+00 0.0000000000000000e+00 0.0000000000000000e+00
2.9660472044996880e+00 0.0000000000000000e+00 0.0000000000000000e+00
2.9653319493051695e+00 0.0000000000000000e+00 0.0000000000000000e+00
2.9646300195358783e+00 0.0000000000000000e+00 0.0000000000000000e+00
2.9639414416886707e+00 0.0000000000000000e+00 0.0000000000000000e+00
2.9632662392525124e+00 0.0000000000000000e+00 0.0000000000000000e+00
2.9626044353762153e+00 0.0000000000000000e+00 0.0000000000000000e+00
2.9619560528961344e+00 0.0000000000000000e+00 0.0000000000000000e+00
2.9613211133786761e+00 0.0000000000000000e+00 0.0000000000000000e+00
2.9606996387173576e+00 0.0000000000000000e+00 0.0000000000000000e+00
2.9600916500254595e+00 0.0000000000000000e+00 0.0000000000000000e+00
2.9594971675274944e+00 0.0000000000000000e+00 0.0000000000000000e+00
2.9589162116178644e+00 0.0000000000000000e+00 0.0000000000000000e+00
2.9583488027330542e+00 0.0000000000000000e+00 0.0000000000000000e+00
2.9577949605697937e+00 0.0000000000000000e+00 0.0000000000000000e+00
2.9572547041438195e+00 0.0000000000000000e+00 0.0000000000000000e+00
2.9567280526303557e+00 0.0000000000000000e+00 0.0000000000000000e+00
2.9562150245854704e+00 0.0000000000000000e+00 0.0000000000000000e+00
2.9557156379541576e+00 0.0000000000000000e+00 0.0000000000000000e+00
2.9552299105369517e+00 0.0000000000000000e+00 0.0000000000000000e+00
2.9547578598442930e+00 0.0000000000000000e+00 0.0000000000000000e+00
2.9542995027852421e+00 0.0000000000000000e+00 0.0000000000000000e+00
2.9538548559888440e+00 0.0000000000000000e+00 0.0000000000000000e+00
2.9534239357965246e+00 0.0000000000000000e+00 0.0000000000000000e+00
2.9530067580914405e+00 0.0000000000000000e+00 0.0000000000000000e+00
2.9526033384774437e+00 0.0000000000000000e+00 0.0000000000000000e+00
2.9522136921454174e+00 0.0000000000000000e+00 0.0000000000000000e+00
2.9518378338108606e+00 0.0000000000000000e+00 0.0000000000000000e+00
2.9514757778539105e+00 0.0000000000000000e+00 0.0000000000000000e+00
2.9511275383475550e+00 0.0000000000000000e+00 0.0000000000000000e+00
2.9507931289744058e+00 0.0000000000000000e+00 0.0000000000000000e+00
2.9504725630233537e+00 0.0000000000000000e+00 0.0000000000000000e+00
2.9501658533067392e+00 0.0000000000000000e+00 0.0000000000000000e+00
2.9498730123550105e+00 0.0000000000000000e+00 0.0000000000000000e+00
2.9495940522754065e+00 0.0000000000000000e+00 0.0000000000000000e+00
2.9493289848163871e+00 0.0000000000000000e+00 0.0000000000000000e+00
2.9490778213102735e+00 0.0000000000000000e+00 0.0000000000000000e+00
2.9488405726179341e+00 0.0000000000000000e+00 0.0000000000000000e+00
2.9486172497435383e+00 0.0000000000000000e+00 0.0000000000000000e+00
2.9484078627797978e+00 0.0000000000000000e+00 0.0000000000000000e+00
2.9482124215955463e+00 0.0000000000000000e+00 0.0000000000000000e+00
2.9480309354345757e+00 0.0000000000000000e+00 0.0000000000000000e+00
2.9478634137632329e+00 0.0000000000000000e+00 0.0000000000000000e+00
2.9477098653339042e+00 0.0000000000000000e+00 0.0000000000000000e+00
2.9475702984468994e+00 0.0000000000000000e+00 0.0000000000000000e+00
2.9474447216569097e+00 0.0000000000000000e+00 0.0000000000000000e+00
2.9473331417943256e+00 0.0000000000000000e+00 0.0000000000000000e+00
2.9472355673628248e+00 0.0000000000000000e+00 0.0000000000000000e+00
2.9471520014778192e+00 0.0000000000000000e+00 0.0000000000000000e+00
2.9470824604485086e+00 0.0000000000000000e+00 0.0000000000000000e+00
2.9470269281729302e+00 0.0000000000000000e+00 0.0000000000000000e+00
2.9469854630633234e+00 0.0000000000000000e+00 0.0000000000000000e+00
2.9469579451770520e+00 0.0000000000000000e+00 0.0000000000000000e+00
2.9469446727658730e+00 0.0000000000000000e+00 0.0000000000000000e+00
2.9469449623694626e+00 0.0000000000000000e+00 0.0000000000000000e+00
2.9469604269288423e+00 0.0000000000000000e+00 0.0000000000000000e+00
2.9469873209271671e+00 0.0000000000000000e+00 0.0000000000000000e+00
2.9470343534188834e+00 0.0000000000000000e+00 0.0000000000000000e+00
2.9470813859105993e+00 0.0000000000000000e+00 0.0000000000000000e+00


SCALARS pressure float
LOOKUP_TABLE default
2.7991866237120110e+01
2.7724555824314791e+01
2.7457245411509472e+01
2.7189692960168493e+01
2.6921835305781681e+01
2.6653649426879536e+01
2.6385127176122214e+01
2.6116271014157867e+01
2.5847074334310086e+01
2.5577534845640905e+01
2.5307662542666442e+01
2.5037458743863901e+01
2.4766924336356375e+01
2.4496061696845889e+01
2.4224872137167374e+01
2.3953358351990403e+01
2.3681522930868599e+01
2.3409372659284980e+01
2.3136915055649983e+01
2.2864151314385243e+01
2.2591084774399860e+01
2.2317718188385982e+01
2.2044050234760018e+01
2.1770076175197225e+01
2.1495793419984022e+01
2.1221219038871322e+01
2.0946370635670469e+01
2.0671236757363864e+01
2.0395819642635246e+01
2.0120121815366975e+01
1.9844147251372544e+01
1.9567899385342606e+01
1.9291380082773031e+01
1.9014590854422625e+01
1.8737533772067795e+01
1.8460212702192887e+01
1.8182631557833655e+01
1.7904793515766542e+01
1.7626701847981575e+01
1.7348359037084183e+01
1.7069769460752063e+01
1.6790936477529822e+01
1.6511861222948923e+01
1.6232545849325373e+01
1.5952992871205243e+01
1.5673204922415700e+01
1.5393184673767600e+01
1.5112934805277179e+01
1.4832457998716013e+01
1.4551756929512594e+01
1.4270834267650661e+01
1.3989692680976290e+01
1.3708334829814472e+01
1.3426763371111313e+01
1.3144980958851290e+01
1.2862990240529641e+01
1.2580793857479968e+01
1.2298394447573234e+01
1.2015794645448851e+01
1.1732997079712280e+01
1.1450004375576915e+01
1.1166819154822420e+01
1.0883444034573753e+01
1.0599881627853678e+01
1.0316134544487642e+01
1.0032205390197898e+01
9.7480967668165448e+00
9.4638112729262254e+00
9.1793515033634989e+00
8.8947200497974350e+00
8.6099195010134206e+00
8.3249524425077812e+00
8.0398214565486548e+00
7.7545291225323245e+00
7.4690780170777478e+00
7.1834707145134038e+00
6.8977097861045351e+00
6.6117978009041867e+00
6.3257373253284976e+00
6.0395309238442065e+00
5.7531811591312172e+00
5.4666905896025773e+00
5.1800617737660701e+00
4.8932972675088600e+00
4.6063996260319904e+00
4.3193714001247976e+00
4.0322151407626166e+00
3.7449333976891888e+00
3.4575287164238460e+00
3.1700036456598366e+00
2.8823607264267070e+00
2.5946025162519435e+00
2.3067315258873569e+00
2.0187503716536277e+00
1.7306614195201591e+00
1.4424676261932607e+00
1.1541705650592271e+00
8.6577503078784679e-01
5.7727832723844508e-01
2.8869511063639841e-01
0.0000000000000000e+00


SCALARS diameter float
LOOKUP_TABLE default
1.0025280152681408e+00
1.0025000873696941e+00
1.0024744509674073e+00
1.0024516968877684e+00
1.0024301017363793e+00
1.0024083874847085e+00
1.0023866799736165e+00
1.0023634343080552e+00
1.0023383495342064e+00
1.0023141895502063e+00
1.0022902385764099e+00
1.0022661757994482e+00
1.0022420243094448e+00
1.0022175009347727e+00
1.0021921422270637e+00
1.0021663855410143e+00
1.0021404217281698e+00
1.0021159929423580e+00
1.0020920142693872e+00
1.0020681625190162e+00
1.0020442069644870e+00
1.0020198293296882e+00
1.0019943691594810e+00
1.0019678270698664e+00
1.0019418101802922e+00
1.0019182154743920e+00
1.0018933359717264e+00
1.0018683292091133e+00
1.0018432993609601e+00
1.0018182708493364e+00
1.0017935610656803e+00
1.0017688078938753e+00
1.0017439888890787e+00
1.0017188125784890e+00
1.0016934658188319e+00
1.0016680924936578e+00
1.0016426904349796e+00
1.0016172588318546e+00
1.0015917978443676e+00
1.0015663357364586e+00
1.0015412877680463e+00
1.0015162084340137e+00
1.0014910979062899e+00
1.0014659577489844e+00
1.0014407886196881e+00
1.0014155910226956e+00
1.0013903655041665e+00
1.0013651127853462e+00
1.0013398334672812e+00
1.0013145274478312e+00
1.0012891957937400e+00
1.0012638386507342e+00
1.0012384564740842e+00
1.0012130501719771e+00
1.0011876200646879e+00
1.0011621663917432e+00
1.0011366895754266e+00
1.0011111904456862e+00
1.0010856691798318e+00
1.0010601262499677e+00
1.0010345622841923e+00
1.0010089777344975e+00
1.0009833729255733e+00
1.0009577484096797e+00
1.0009321046887214e+00
1.0009064421397873e+00
1.0008807612904795e+00
1.0008550625565007e+00
1.0008293463894717e+00
1.0008036132913618e+00
1.0007778637481992e+00
1.0007520981648947e+00
1.0007263170278298e+00
1.0007005207539776e+00
1.0006747099111359e+00
1.0006488848869060e+00
1.0006230461996826e+00
1.0005971943068070e+00
1.0005713296410998e+00
1.0005454528476376e+00
1.0005195639686617e+00
1.0004936637697985e+00
1.0004677525679830e+00
1.0004418310508714e+00
1.0004158994196253e+00
1.0003899581139617e+00
1.0003640078178402e+00
1.0003380484348543e+00
1.0003120810840238e+00
1.0002861060076704e+00
1.0002601240306315e+00
1.0002341346722776e+00
1.0002081388422772e+00
1.0001821369488644e+00
1.0001561298211041e+00
1.0001301178629614e+00
1.0001041014019505e+00
1.0000780809224910e+00
1.0000520570536273e+00
1.0000260304524806e+00
1.0000000002376566e+00


SCALARS iters float
LOOKUP_TABLE default
3.0000000000000000e+00
3.0000000000000000e+00
3.0000000000000000e+00
3.0000000000000000e+00
3.0000000000000000e+00
3.0000000000000000e+00
3.0000000000000000e+00
3.0000000000000000e+00
3.0000000000000000e+00
3.0000000000000000e+00
3.0000000000000000e+00
3.0000000000000000e+00
3.0000000000000000e+00
3.0000000000000000e+00
3.0000000000000000e+00
3.0000000000000000e+00
3.0000000000000000e+00
3.0000000000000000e+00
3.0000000000000000e+00
3.0000000000000000e+00
3.0000000000000000e+00
3.0000000000000000e+00
3.0000000000000000e+00
3.0000000000000000e+00
3.0000000000000000e+00
3.0000000000000000e+00
3.0000000000000000e+00
3.0000000000000000e+00
3.0000000000000000e+00
3.0000000000000000e+00
3.0000000000000000e+00
3.0000000000000000e+00
3.0000000000000000e+00
3.0000000000000000e+00
3.0000000000000000e+00
3.0000000000000000e+00
3.0000000000000000e+00
3.0000000000000000e+00
3.0000000000000000e+00
3.0000000000000000e+00
3.0000000000000000e+00
3.0000000000000000e+00
3.0000000000000000e+00
3.0000000000000000e+00
3.0000000000000000e+00
3.0000000000000000e+00
3.0000000000000000e+00
3.0000000000000000e+00
3.0000000000000000e+00
3.0000000000000000e+00
3.0000000000000000e+00
3.0000000000000000e+00
3.0000000000000000e+00
3.0000000000000000e+00
3.0000000000000000e+00
3.0000000000000000e+00
3.0000000000000000e+00
3.0000000000000000e+00
3.0000000000000000e+00
3.0000000000000000e+00
3.0000000000000000e+00
3.0000000000000000e+00
3.0000000000000000e+00
3.0000000000000000e+00
3.0000000000000000e+00
3.0000000000000000e+00
3.0000000000000000e+00
3.0000000000000000e+00
3.0000000000000000e+00
3.0000000000000000e+00
3.0000000000000000e+00
3.0000000000000000e+00
3.0000000000000000e+00
3.0000000000000000e+00
3.0000000000000000e+00
3.0000000000000000e+00
3.0000000000000000e+00
3.0000000000000000e+00
3.0000000000000000e+00
3.0000000000000000e+00
3.0000000000000000e+00
3.0000000000000000e+00
3.0000000000000000e+00
3.0000000000000000e+00
3.0000000000000000e+00
3.0000000000000000e+00
3.0000000000000000e+00
3.0000000000000000e+00
3.0000000000000000e+00
3.0000000000000000e+00
3.0000000000000000e+00
3.0000000000000000e+00
3.0000000000000000e+00
3.0000000000000000e+00
3.0000000000000000e+00
3.0000000000000000e+00
3.0000000000000000e+00
3.0000000000000000e+00
3.0000000000000000e+00
3.0000000000000000e+00
3.0000000000000000e+00


