# vtk DataFile Version 2.0

ASCII

DATASET UNSTRUCTURED_GRID

POINTS 101 float

0.0000000000000000e+00 0.0000000000000000e+00 0.0000000000000000e+00
1.0000000000000001e-01 0.0000000000000000e+00 0.0000000000000000e+00
2.0000000000000001e-01 0.0000000000000000e+00 0.0000000000000000e+00
3.0000000000000004e-01 0.0000000000000000e+00 0.0000000000000000e+00
4.0000000000000002e-01 0.0000000000000000e+00 0.0000000000000000e+00
5.0000000000000000e-01 0.0000000000000000e+00 0.0000000000000000e+00
6.0000000000000009e-01 0.0000000000000000e+00 0.0000000000000000e+00
7.0000000000000007e-01 0.0000000000000000e+00 0.0000000000000000e+00
8.0000000000000004e-01 0.0000000000000000e+00 0.0000000000000000e+00
9.0000000000000002e-01 0.0000000000000000e+00 0.0000000000000000e+00
1.0000000000000000e+00 0.0000000000000000e+00 0.0000000000000000e+00
1.1000000000000001e+00 0.0000000000000000e+00 0.0000000000000000e+00
1.2000000000000002e+00 0.0000000000000000e+00 0.0000000000000000e+00
1.3000000000000000e+00 0.0000000000000000e+00 0.0000000000000000e+00
1.4000000000000001e+00 0.0000000000000000e+00 0.0000000000000000e+00
1.5000000000000000e+00 0.0000000000000000e+00 0.0000000000000000e+00
1.6000000000000001e+00 0.0000000000000000e+00 0.0000000000000000e+00
1.7000000000000002e+00 0.0000000000000000e+00 0.0000000000000000e+00
1.8000000000000000e+00 0.0000000000000000e+00 0.0000000000000000e+00
1.9000000000000001e+00 0.0000000000000000e+00 0.0000000000000000e+00
2.0000000000000000e+00 0.0000000000000000e+00 0.0000000000000000e+00
2.1000000000000001e+00 0.0000000000000000e+00 0.0000000000000000e+00
2.2000000000000002e+00 0.0000000000000000e+00 0.0000000000000000e+00
2.3000000000000003e+00 0.0000000000000000e+00 0.0000000000000000e+00
2.4000000000000004e+00 0.0000000000000000e+00 0.0000000000000000e+00
2.5000000000000000e+00 0.0000000000000000e+00 0.0000000000000000e+00
2.6000000000000001e+00 0.0000000000000000e+00 0.0000000000000000e+00
2.7000000000000002e+00 0.0000000000000000e+00 0.0000000000000000e+00
2.8000000000000003e+00 0.0000000000000000e+00 0.0000000000000000e+00
2.9000000000000004e+00 0.0000000000000000e+00 0.0000000000000000e+00
3.0000000000000000e+00 0.0000000000000000e+00 0.0000000000000000e+00
3.1000000000000001e+00 0.0000000000000000e+00 0.0000000000000000e+00
3.2000000000000002e+00 0.0000000000000000e+00 0.0000000000000000e+00
3.3000000000000003e+00 0.0000000000000000e+00 0.0000000000000000e+00
3.4000000000000004e+00 0.0000000000000000e+00 0.0000000000000000e+00
3.5000000000000000e+00 0.0000000000000000e+00 0.0000000000000000e+00
3.6000000000000001e+00 0.0000000000000000e+00 0.0000000000000000e+00
3.7000000000000002e+00 0.0000000000000000e+00 0.0000000000000000e+00
3.8000000000000003e+00 0.0000000000000000e+00 0.0000000000000000e+00
3.9000000000000004e+00 0.0000000000000000e+00 0.0000000000000000e+00
4.0000000000000000e+00 0.0000000000000000e+00 0.0000000000000000e+00
4.1000000000000005e+00 0.0000000000000000e+00 0.0000000000000000e+00
4.2000000000000002e+00 0.0000000000000000e+00 0.0000000000000000e+00
4.2999999999999998e+00 0.0000000000000000e+00 0.0000000000000000e+00
4.4000000000000004e+00 0.0000000000000000e+00 0.0000000000000000e+00
4.5000000000000000e+00 0.0000000000000000e+00 0.0000000000000000e+00
4.6000000000000005e+00 0.0000000000000000e+00 0.0000000000000000e+00
4.7000000000000002e+00 0.0000000000000000e+00 0.0000000000000000e+00
4.8000000000000007e+00 0.0000000000000000e+00 0.0000000000000000e+00
4.9000000000000004e+00 0.0000000000000000e+00 0.0000000000000000e+00
5.0000000000000000e+00 0.0000000000000000e+00 0.0000000000000000e+00
5.1000000000000005e+00 0.0000000000000000e+00 0.0000000000000000e+00
5.2000000000000002e+00 0.0000000000000000e+00 0.0000000000000000e+00
5.3000000000000007e+00 0.0000000000000000e+00 0.0000000000000000e+00
5.4000000000000004e+00 0.0000000000000000e+00 0.0000000000000000e+00
5.5000000000000000e+00 0.0000000000000000e+00 0.0000000000000000e+00
5.6000000000000005e+00 0.0000000000000000e+00 0.0000000000000000e+00
5.7000000000000002e+00 0.0000000000000000e+00 0.0000000000000000e+00
5.8000000000000007e+00 0.0000000000000000e+00 0.0000000000000000e+00
5.9000000000000004e+00 0.0000000000000000e+00 0.0000000000000000e+00
6.0000000000000000e+00 0.0000000000000000e+00 0.0000000000000000e+00
6.1000000000000005e+00 0.0000000000000000e+00 0.0000000000000000e+00
6.2000000000000002e+00 0.0000000000000000e+00 0.0000000000000000e+00
6.3000000000000007e+00 0.0000000000000000e+00 0.0000000000000000e+00
6.4000000000000004e+00 0.0000000000000000e+00 0.0000000000000000e+00
6.5000000000000000e+00 0.0000000000000000e+00 0.0000000000000000e+00
6.6000000000000005e+00 0.0000000000000000e+00 0.0000000000000000e+00
6.7000000000000002e+00 0.0000000000000000e+00 0.0000000000000000e+00
6.8000000000000007e+00 0.0000000000000000e+00 0.0000000000000000e+00
6.9000000000000004e+00 0.0000000000000000e+00 0.0000000000000000e+00
7.0000000000000000e+00 0.0000000000000000e+00 0.0000000000000000e+00
7.1000000000000005e+00 0.0000000000000000e+00 0.0000000000000000e+00
7.2000000000000002e+00 0.0000000000000000e+00 0.0000000000000000e+00
7.3000000000000007e+00 0.0000000000000000e+00 0.0000000000000000e+00
7.4000000000000004e+00 0.0000000000000000e+00 0.0000000000000000e+00
7.5000000000000000e+00 0.0000000000000000e+00 0.0000000000000000e+00
7.6000000000000005e+00 0.0000000000000000e+00 0.0000000000000000e+00
7.7000000000000002e+00 0.0000000000000000e+00 0.0000000000000000e+00
7.8000000000000007e+00 0.0000000000000000e+00 0.0000000000000000e+00
7.9000000000000004e+00 0.0000000000000000e+00 0.0000000000000000e+00
8.0000000000000000e+00 0.0000000000000000e+00 0.0000000000000000e+00
8.0999999999999996e+00 0.0000000000000000e+00 0.0000000000000000e+00
8.2000000000000011e+00 0.0000000000000000e+00 0.0000000000000000e+00
8.3000000000000007e+00 0.0000000000000000e+00 0.0000000000000000e+00
8.4000000000000004e+00 0.0000000000000000e+00 0.0000000000000000e+00
8.5000000000000000e+00 0.0000000000000000e+00 0.0000000000000000e+00
8.5999999999999996e+00 0.0000000000000000e+00 0.0000000000000000e+00
8.7000000000000011e+00 0.0000000000000000e+00 0.0000000000000000e+00
8.8000000000000007e+00 0.0000000000000000e+00 0.0000000000000000e+00
8.9000000000000004e+00 0.0000000000000000e+00 0.0000000000000000e+00
9.0000000000000000e+00 0.0000000000000000e+00 0.0000000000000000e+00
9.0999999999999996e+00 0.0000000000000000e+00 0.0000000000000000e+00
9.2000000000000011e+00 0.0000000000000000e+00 0.0000000000000000e+00
9.3000000000000007e+00 0.0000000000000000e+00 0.0000000000000000e+00
9.4000000000000004e+00 0.0000000000000000e+00 0.0000000000000000e+00
9.5000000000000000e+00 0.0000000000000000e+00 0.0000000000000000e+00
9.6000000000000014e+00 0.0000000000000000e+00 0.0000000000000000e+00
9.7000000000000011e+00 0.0000000000000000e+00 0.0000000000000000e+00
9.8000000000000007e+00 0.0000000000000000e+00 0.0000000000000000e+00
9.9000000000000004e+00 0.0000000000000000e+00 0.0000000000000000e+00
1.0000000000000000e+01 0.0000000000000000e+00 0.0000000000000000e+00

POINT_DATA 101

VECTORS velocity float
4.0874255674456590e+00 0.0000000000000000e+00 0.0000000000000000e+00
4.0878973196944983e+00 0.0000000000000000e+00 0.0000000000000000e+00
4.0883667011543610e+00 0.0000000000000000e+00 0.0000000000000000e+00
4.0888313403778049e+00 0.0000000000000000e+00 0.0000000000000000e+00
4.0892903820735755e+00 0.0000000000000000e+00 0.0000000000000000e+00
4.0897454475325361e+00 0.0000000000000000e+00 0.0000000000000000e+00
4.0901995860327744e+00 0.0000000000000000e+00 0.0000000000000000e+00
4.0906517555544104e+00 0.0000000000000000e+00 0.0000000000000000e+00
4.0910984370807313e+00 0.0000000000000000e+00 0.0000000000000000e+00
4.0915380994149126e+00 0.0000000000000000e+00 0.0000000000000000e+00
4.0919715807189796e+00 0.0000000000000000e+00 0.0000000000000000e+00
4.0923995511740818e+00 0.0000000000000000e+00 0.0000000000000000e+00
4.0928232683169874e+00 0.0000000000000000e+00 0.0000000000000000e+00
4.0932450315315601e+00 0.0000000000000000e+00 0.0000000000000000e+00
4.0936646624530342e+00 0.0000000000000000e+00 0.0000000000000000e+00
4.0940809778123928e+00 0.0000000000000000e+00 0.0000000000000000e+00
4.0944909342495510e+00 0.0000000000000000e+00 0.0000000000000000e+00
4.0948930279482170e+00 0.0000000000000000e+00 0.0000000000000000e+00
4.0952899956513154e+00 0.0000000000000000e+00 0.0000000000000000e+00
4.0956831201780499e+00 0.0000000000000000e+00 0.0000000000000000e+00
4.0960717558896693e+00 0.0000000000000000e+00 0.0000000000000000e+00
4.0964554618223179e+00 0.0000000000000000e+00 0.0000000000000000e+00
4.0968343416623787e+00 0.0000000000000000e+00 0.0000000000000000e+00
4.0972086410192006e+00 0.0000000000000000e+00 0.0000000000000000e+00
4.0975810372064538e+00 0.0000000000000000e+00 0.0000000000000000e+00
4.0979499809851463e+00 0.0000000000000000e+00 0.0000000000000000e+00
4.0983127449589629e+00 0.0000000000000000e+00 0.0000000000000000e+00
4.0986702375952211e+00 0.0000000000000000e+00 0.0000000000000000e+00
4.0990229295981830e+00 0.0000000000000000e+00 0.0000000000000000e+00
4.0993703844928859e+00 0.0000000000000000e+00 0.0000000000000000e+00
4.0997122953474019e+00 0.0000000000000000e+00 0.0000000000000000e+00
4.1000491045556355e+00 0.0000000000000000e+00 0.0000000000000000e+00
4.1003813593775904e+00 0.0000000000000000e+00 0.0000000000000000e+00
4.1007096192880281e+00 0.0000000000000000e+00 0.0000000000000000e+00
4.1010336592538907e+00 0.0000000000000000e+00 0.0000000000000000e+00
4.1013532021089620e+00 0.0000000000000000e+00 0.0000000000000000e+00
4.1016681303518574e+00 0.0000000000000000e+00 0.0000000000000000e+00
4.1019783927567737e+00 0.0000000000000000e+00 0.0000000000000000e+00
4.1022839493690189e+00 0.0000000000000000e+00 0.0000000000000000e+00
4.1025848345387876e+00 0.0000000000000000e+00 0.0000000000000000e+00
4.1028811341285971e+00 0.0000000000000000e+00 0.0000000000000000e+00
4.1031728050331919e+00 0.0000000000000000e+00 0.0000000000000000e+00
4.1034598325090732e+00 0.0000000000000000e+00 0.0000000000000000e+00
4.1037422095453939e+00 0.0000000000000000e+00 0.0000000000000000e+00
4.1040199325009388e+00 0.0000000000000000e+00 0.0000000000000000e+00
4.1042929990855104e+00 0.0000000000000000e+00 0.0000000000000000e+00
4.1045614077601851e+00 0.0000000000000000e+00 0.0000000000000000e+00
4.1048251569867693e+00 0.0000000000000000e+00 0.0000000000000000e+00
4.1050842459751875e+00 0.0000000000000000e+00 0.0000000000000000e+00
4.1053386739248143e+00 0.0000000000000000e+00 0.0000000000000000e+00
4.1055884397604867e+00 0.0000000000000000e+00 0.0000000000000000e+00
4.1058335428894841e+00 0.0000000000000000e+00 0.0000000000000000e+00
4.1060739823443200e+00 0.0000000000000000e+00 0.0000000000000000e+00
4.1063097572125500e+00 0.0000000000000000e+00 0.0000000000000000e+00
4.1065408669330079e+00 0.0000000000000000e+00 0.0000000000000000e+00
4.1067673108089702e+00 0.0000000000000000e+00 0.0000000000000000e+00
4.1069890877443518e+00 0.0000000000000000e+00 0.0000000000000000e+00
4.1072061970787406e+00 0.0000000000000000e+00 0.0000000000000000e+00
4.1074186385814713e+00 0.0000000000000000e+00 0.0000000000000000e+00
4.1076264115254242e+00 0.0000000000000000e+00 0.0000000000000000e+00
4.1078295151582456e+00 0.0000000000000000e+00 0.0000000000000000e+00
4.1080279491673179e+00 0.0000000000000000e+00 0.0000000000000000e+00
4.1082217130968450e+00 0.0000000000000000e+00 0.0000000000000000e+00
4.1084108061579920e+00 0.0000000000000000e+00 0.0000000000000000e+00
4.1085952277935087e+00 0.0000000000000000e+00 0.0000000000000000e+00
4.1087749775266209e+00 0.0000000000000000e+00 0.0000000000000000e+00
4.1089500548485107e+00 0.0000000000000000e+00 0.0000000000000000e+00
4.1091204593894819e+00 0.0000000000000000e+00 0.0000000000000000e+00
4.1092861907806704e+00 0.0000000000000000e+00 0.0000000000000000e+00
4.1094472486170686e+00 0.0000000000000000e+00 0.0000000000000000e+00
4.1096036325105816e+00 0.0000000000000000e+00 0.0000000000000000e+00
4.1097553421506587e+00 0.0000000000000000e+00 0.0000000000000000e+00
4.1099023772027090e+00 0.0000000000000000e+00 0.0000000000000000e+00
4.1100447373495994e+00 0.0000000000000000e+00 0.0000000000000000e+00
4.1101824223847672e+00 0.0000000000000000e+00 0.0000000000000000e+00
4.1103154319125155e+00 0.0000000000000000e+00 0.0000000000000000e+00
4.1104437658659689e+00 0.0000000000000000e+00 0.0000000000000000e+00
4.1105674238740777e+00 0.0000000000000000e+00 0.0000000000000000e+00
4.1106864059505357e+00 0.0000000000000000e+00 0.0000000000000000e+00
4.1108007122225496e+00 0.0000000000000000e+00 0.0000000000000000e+00
4.1109103423383822e+00 0.0000000000000000e+00 0.0000000000000000e+00
4.1110152962081825e+00 0.0000000000000000e+00 0.0000000000000000e+00
4.1111155736899470e+00 0.0000000000000000e+00 0.0000000000000000e+00
4.1112111749626781e+00 0.0000000000000000e+00 0.0000000000000000e+00
4.1113020998423364e+00 0.0000000000000000e+00 0.0000000000000000e+00
4.1113883482275977e+00 0.0000000000000000e+00 0.0000000000000000e+00
4.1114699203314631e+00 0.0000000000000000e+00 0.0000000000000000e+00
4.1115468151899268e+00 0.0000000000000000e+00 0.0000000000000000e+00
4.1116190332741880e+00 0.0000000000000000e+00 0.0000000000000000e+00
4.1116865744893909e+00 0.0000000000000000e+00 0.0000000000000000e+00
4.1117494412908417e+00 0.0000000000000000e+00 0.0000000000000000e+00
4.1118076316196914e+00 0.0000000000000000e+00 0.0000000000000000e+00
4.1118611490124382e+00 0.0000000000000000e+00 0.0000000000000000e+00
4.1119099830405101e+00 0.0000000000000000e+00 0.0000000000000000e+00
4.1119541616182449e+00 0.0000000000000000e+00 0.0000000000000000e+00
4.1119936150728300e+00 0.0000000000000000e+00 0.0000000000000000e+00
4.1120285172121260e+00 0.0000000000000000e+00 0.0000000000000000e+00
4.1120584378045875e+00 0.0000000000000000e+00 0.0000000000000000e+00
4.1120844445562001e+00 0.0000000000000000e+00 0.0000000000000000e+00
4.1121038914944545e+00 0.0000000000000000e+00 0.0000000000000000e+00
4.1121233384327098e+00 0.0000000000000000e+00 0.0000000000000000e+00


SCALARS pressure float
LOOKUP_TABLE default
2.3872293534341140e+00
2.3622936767251614e+00
2.3373580000162093e+00
2.3124285761760448e+00
2.2875136950201620e+00
2.2626163252035001e+00
2.2377301659689506e+00
2.2128431081141962e+00
2.1879580797353069e+00
2.1630887842612720e+00
2.1382426967535628e+00
2.1134177272524881e+00
2.0886115044148705e+00
2.0638194769015441e+00
2.0390331924730574e+00
2.0142531707984417e+00
1.9894843328870595e+00
1.9647386213879650e+00
1.9400225046194806e+00
1.9153265137286188e+00
1.8906457022208096e+00
1.8659826297501620e+00
1.8413394287572107e+00
1.8167160945048011e+00
1.7921118915985053e+00
1.7675172001291306e+00
1.7429377076921420e+00
1.7183841689507726e+00
1.6938541912506819e+00
1.6693460543212320e+00
1.6448615238633084e+00
1.6204021468939478e+00
1.5959666345457921e+00
1.5715531261199764e+00
1.5471597511648982e+00
1.5227875667277675e+00
1.4984380171294280e+00
1.4741119623247989e+00
1.4498099517133147e+00
1.4255324822600322e+00
1.4012796991161518e+00
1.3770514385516111e+00
1.3528480581315889e+00
1.3286698670555273e+00
1.3045171479125510e+00
1.2803901703321077e+00
1.2562891977118158e+00
1.2322144891519347e+00
1.2081663020134010e+00
1.1841448892119306e+00
1.1601505018971066e+00
1.1361833905909648e+00
1.1122438025357382e+00
1.0883319845827286e+00
1.0644481818116167e+00
1.0405926364028490e+00
1.0167655893907512e+00
9.9296728188037653e-01
9.6919795197448866e-01
9.4545783449186582e-01
9.2174716448771743e-01
8.9806617577071701e-01
8.7441509912740134e-01
8.5079416440714162e-01
8.2720360138632520e-01
8.0364363773375691e-01
7.8011449943028155e-01
7.5661641125542067e-01
7.3314959619633435e-01
7.0971427593716629e-01
6.8631067106106791e-01
6.6293900089803126e-01
6.3959948331637140e-01
6.1629233511758064e-01
5.9301777189985105e-01
5.6977600772262926e-01
5.4656725625539437e-01
5.2339172886124918e-01
5.0024963697010816e-01
4.7714118958422475e-01
4.5406659412769229e-01
4.3102605892588464e-01
4.0801979056449639e-01
3.8504799483501434e-01
3.6211087519864943e-01
3.3920863558377612e-01
3.1634147921338174e-01
2.9350960746264726e-01
2.7071322493242389e-01
2.4795253005448825e-01
2.2522772226410695e-01
2.0253899085519231e-01
1.7988654131561527e-01
1.5727055812433471e-01
1.3469127665558620e-01
1.1214878953673589e-01
8.9643549503760300e-02
6.7175109793941853e-02
4.4745252051182766e-02
2.2350230925227088e-02
0.0000000000000000e+00


SCALARS diameter float
LOOKUP_TABLE default
1.0002144034229297e+00
1.0002126776715632e+00
1.0002103048156803e+00
1.0002084063701087e+00
1.0002069193557668e+00
1.0002054697735316e+00
1.0002026460007367e+00
1.0001989531795783e+00
1.0001960611695684e+00
1.0001942822546690e+00
1.0001929125701092e+00
1.0001915851101166e+00
1.0001901790738770e+00
1.0001877841434266e+00
1.0001844543386853e+00
1.0001810728960849e+00
1.0001781020010978e+00
1.0001767240724557e+00
1.0001751859371839e+00
1.0001731065292507e+00
1.0001709490884965e+00
1.0001690178808340e+00
1.0001670968601766e+00
1.0001651974723744e+00
1.0001625503505012e+00
1.0001589908907078e+00
1.0001566891475289e+00
1.0001543958130288e+00
1.0001521109276972e+00
1.0001498722468471e+00
1.0001480662237026e+00
1.0001462640909200e+00
1.0001444546463403e+00
1.0001423366805036e+00
1.0001401035331214e+00
1.0001378781555248e+00
1.0001356603851059e+00
1.0001334502584953e+00
1.0001312476936703e+00
1.0001290499051343e+00
1.0001268071343838e+00
1.0001245682022155e+00
1.0001223343310013e+00
1.0001201057603288e+00
1.0001178825340962e+00
1.0001156646882170e+00
1.0001134522186683e+00
1.0001112451215910e+00
1.0001090433971289e+00
1.0001068467075109e+00
1.0001046552810848e+00
1.0001024688415276e+00
1.0001002873833247e+00
1.0000981109340628e+00
1.0000959393208273e+00
1.0000937724387187e+00
1.0000916103760098e+00
1.0000894531074644e+00
1.0000873002914374e+00
1.0000851519341025e+00
1.0000830080731522e+00
1.0000808685286433e+00
1.0000787331419412e+00
1.0000766019932985e+00
1.0000744750258070e+00
1.0000723521087631e+00
1.0000702332143119e+00
1.0000681182279862e+00
1.0000660070558167e+00
1.0000638996374973e+00
1.0000617959078033e+00
1.0000596957815284e+00
1.0000575991724838e+00
1.0000555060307699e+00
1.0000534162423635e+00
1.0000513297667282e+00
1.0000492465406872e+00
1.0000471664024251e+00
1.0000450894426745e+00
1.0000430152015751e+00
1.0000409439613875e+00
1.0000388754638447e+00
1.0000368097557049e+00
1.0000347466054966e+00
1.0000326859927047e+00
1.0000306279916840e+00
1.0000285722761606e+00
1.0000265190974982e+00
1.0000244684504258e+00
1.0000224198550072e+00
1.0000203732335007e+00
1.0000183278524142e+00
1.0000162850711367e+00
1.0000142436998622e+00
1.0000122042470920e+00
1.0000101664299219e+00
1.0000081302257435e+00
1.0000060955290457e+00
1.0000040622703705e+00
1.0000020303621830e+00
9.9999999997268918e-01


SCALARS iters float
LOOKUP_TABLE default
4.0000000000000000e+00
4.0000000000000000e+00
4.0000000000000000e+00
4.0000000000000000e+00
4.0000000000000000e+00
4.0000000000000000e+00
4.0000000000000000e+00
4.0000000000000000e+00
4.0000000000000000e+00
4.0000000000000000e+00
4.0000000000000000e+00
4.0000000000000000e+00
4.0000000000000000e+00
4.0000000000000000e+00
4.0000000000000000e+00
4.0000000000000000e+00
4.0000000000000000e+00
4.0000000000000000e+00
4.0000000000000000e+00
4.0000000000000000e+00
4.0000000000000000e+00
4.0000000000000000e+00
4.0000000000000000e+00
4.0000000000000000e+00
4.0000000000000000e+00
4.0000000000000000e+00
4.0000000000000000e+00
4.0000000000000000e+00
4.0000000000000000e+00
4.0000000000000000e+00
4.0000000000000000e+00
4.0000000000000000e+00
4.0000000000000000e+00
4.0000000000000000e+00
4.0000000000000000e+00
4.0000000000000000e+00
4.0000000000000000e+00
4.0000000000000000e+00
4.0000000000000000e+00
4.0000000000000000e+00
4.0000000000000000e+00
4.0000000000000000e+00
4.0000000000000000e+00
4.0000000000000000e+00
4.0000000000000000e+00
4.0000000000000000e+00
4.0000000000000000e+00
4.0000000000000000e+00
4.0000000000000000e+00
4.0000000000000000e+00
4.0000000000000000e+00
4.0000000000000000e+00
4.0000000000000000e+00
4.0000000000000000e+00
4.0000000000000000e+00
4.0000000000000000e+00
4.0000000000000000e+00
4.0000000000000000e+00
4.0000000000000000e+00
4.0000000000000000e+00
4.0000000000000000e+00
4.0000000000000000e+00
4.0000000000000000e+00
4.0000000000000000e+00
4.0000000000000000e+00
4.0000000000000000e+00
4.0000000000000000e+00
4.0000000000000000e+00
4.0000000000000000e+00
4.0000000000000000e+00
4.0000000000000000e+00
4.0000000000000000e+00
4.0000000000000000e+00
4.0000000000000000e+00
4.0000000000000000e+00
4.0000000000000000e+00
4.0000000000000000e+00
4.0000000000000000e+00
4.0000000000000000e+00
4.0000000000000000e+00
4.0000000000000000e+00
4.0000000000000000e+00
4.0000000000000000e+00
4.0000000000000000e+00
4.0000000000000000e+00
4.0000000000000000e+00
4.0000000000000000e+00
4.0000000000000000e+00
4.0000000000000000e+00
4.0000000000000000e+00
4.0000000000000000e+00
4.0000000000000000e+00
4.0000000000000000e+00
4.0000000000000000e+00
4.0000000000000000e+00
4.0000000000000000e+00
4.0000000000000000e+00
4.0000000000000000e+00
4.0000000000000000e+00
4.0000000000000000e+00
4.0000000000000000e+00


