# vtk DataFile Version 2.0

ASCII

DATASET UNSTRUCTURED_GRID

POINTS 101 float

0.0000000000000000e+00 0.0000000000000000e+00 0.0000000000000000e+00
1.0000000000000001e-01 0.0000000000000000e+00 0.0000000000000000e+00
2.0000000000000001e-01 0.0000000000000000e+00 0.0000000000000000e+00
3.0000000000000004e-01 0.0000000000000000e+00 0.0000000000000000e+00
4.0000000000000002e-01 0.0000000000000000e+00 0.0000000000000000e+00
5.0000000000000000e-01 0.0000000000000000e+00 0.0000000000000000e+00
6.0000000000000009e-01 0.0000000000000000e+00 0.0000000000000000e+00
7.0000000000000007e-01 0.0000000000000000e+00 0.0000000000000000e+00
8.0000000000000004e-01 0.0000000000000000e+00 0.0000000000000000e+00
9.0000000000000002e-01 0.0000000000000000e+00 0.0000000000000000e+00
1.0000000000000000e+00 0.0000000000000000e+00 0.0000000000000000e+00
1.1000000000000001e+00 0.0000000000000000e+00 0.0000000000000000e+00
1.2000000000000002e+00 0.0000000000000000e+00 0.0000000000000000e+00
1.3000000000000000e+00 0.0000000000000000e+00 0.0000000000000000e+00
1.4000000000000001e+00 0.0000000000000000e+00 0.0000000000000000e+00
1.5000000000000000e+00 0.0000000000000000e+00 0.0000000000000000e+00
1.6000000000000001e+00 0.0000000000000000e+00 0.0000000000000000e+00
1.7000000000000002e+00 0.0000000000000000e+00 0.0000000000000000e+00
1.8000000000000000e+00 0.0000000000000000e+00 0.0000000000000000e+00
1.9000000000000001e+00 0.0000000000000000e+00 0.0000000000000000e+00
2.0000000000000000e+00 0.0000000000000000e+00 0.0000000000000000e+00
2.1000000000000001e+00 0.0000000000000000e+00 0.0000000000000000e+00
2.2000000000000002e+00 0.0000000000000000e+00 0.0000000000000000e+00
2.3000000000000003e+00 0.0000000000000000e+00 0.0000000000000000e+00
2.4000000000000004e+00 0.0000000000000000e+00 0.0000000000000000e+00
2.5000000000000000e+00 0.0000000000000000e+00 0.0000000000000000e+00
2.6000000000000001e+00 0.0000000000000000e+00 0.0000000000000000e+00
2.7000000000000002e+00 0.0000000000000000e+00 0.0000000000000000e+00
2.8000000000000003e+00 0.0000000000000000e+00 0.0000000000000000e+00
2.9000000000000004e+00 0.0000000000000000e+00 0.0000000000000000e+00
3.0000000000000000e+00 0.0000000000000000e+00 0.0000000000000000e+00
3.1000000000000001e+00 0.0000000000000000e+00 0.0000000000000000e+00
3.2000000000000002e+00 0.0000000000000000e+00 0.0000000000000000e+00
3.3000000000000003e+00 0.0000000000000000e+00 0.0000000000000000e+00
3.4000000000000004e+00 0.0000000000000000e+00 0.0000000000000000e+00
3.5000000000000000e+00 0.0000000000000000e+00 0.0000000000000000e+00
3.6000000000000001e+00 0.0000000000000000e+00 0.0000000000000000e+00
3.7000000000000002e+00 0.0000000000000000e+00 0.0000000000000000e+00
3.8000000000000003e+00 0.0000000000000000e+00 0.0000000000000000e+00
3.9000000000000004e+00 0.0000000000000000e+00 0.0000000000000000e+00
4.0000000000000000e+00 0.0000000000000000e+00 0.0000000000000000e+00
4.1000000000000005e+00 0.0000000000000000e+00 0.0000000000000000e+00
4.2000000000000002e+00 0.0000000000000000e+00 0.0000000000000000e+00
4.2999999999999998e+00 0.0000000000000000e+00 0.0000000000000000e+00
4.4000000000000004e+00 0.0000000000000000e+00 0.0000000000000000e+00
4.5000000000000000e+00 0.0000000000000000e+00 0.0000000000000000e+00
4.6000000000000005e+00 0.0000000000000000e+00 0.0000000000000000e+00
4.7000000000000002e+00 0.0000000000000000e+00 0.0000000000000000e+00
4.8000000000000007e+00 0.0000000000000000e+00 0.0000000000000000e+00
4.9000000000000004e+00 0.0000000000000000e+00 0.0000000000000000e+00
5.0000000000000000e+00 0.0000000000000000e+00 0.0000000000000000e+00
5.1000000000000005e+00 0.0000000000000000e+00 0.0000000000000000e+00
5.2000000000000002e+00 0.0000000000000000e+00 0.0000000000000000e+00
5.3000000000000007e+00 0.0000000000000000e+00 0.0000000000000000e+00
5.4000000000000004e+00 0.0000000000000000e+00 0.0000000000000000e+00
5.5000000000000000e+00 0.0000000000000000e+00 0.0000000000000000e+00
5.6000000000000005e+00 0.0000000000000000e+00 0.0000000000000000e+00
5.7000000000000002e+00 0.0000000000000000e+00 0.0000000000000000e+00
5.8000000000000007e+00 0.0000000000000000e+00 0.0000000000000000e+00
5.9000000000000004e+00 0.0000000000000000e+00 0.0000000000000000e+00
6.0000000000000000e+00 0.0000000000000000e+00 0.0000000000000000e+00
6.1000000000000005e+00 0.0000000000000000e+00 0.0000000000000000e+00
6.2000000000000002e+00 0.0000000000000000e+00 0.0000000000000000e+00
6.3000000000000007e+00 0.0000000000000000e+00 0.0000000000000000e+00
6.4000000000000004e+00 0.0000000000000000e+00 0.0000000000000000e+00
6.5000000000000000e+00 0.0000000000000000e+00 0.0000000000000000e+00
6.6000000000000005e+00 0.0000000000000000e+00 0.0000000000000000e+00
6.7000000000000002e+00 0.0000000000000000e+00 0.0000000000000000e+00
6.8000000000000007e+00 0.0000000000000000e+00 0.0000000000000000e+00
6.9000000000000004e+00 0.0000000000000000e+00 0.0000000000000000e+00
7.0000000000000000e+00 0.0000000000000000e+00 0.0000000000000000e+00
7.1000000000000005e+00 0.0000000000000000e+00 0.0000000000000000e+00
7.2000000000000002e+00 0.0000000000000000e+00 0.0000000000000000e+00
7.3000000000000007e+00 0.0000000000000000e+00 0.0000000000000000e+00
7.4000000000000004e+00 0.0000000000000000e+00 0.0000000000000000e+00
7.5000000000000000e+00 0.0000000000000000e+00 0.0000000000000000e+00
7.6000000000000005e+00 0.0000000000000000e+00 0.0000000000000000e+00
7.7000000000000002e+00 0.0000000000000000e+00 0.0000000000000000e+00
7.8000000000000007e+00 0.0000000000000000e+00 0.0000000000000000e+00
7.9000000000000004e+00 0.0000000000000000e+00 0.0000000000000000e+00
8.0000000000000000e+00 0.0000000000000000e+00 0.0000000000000000e+00
8.0999999999999996e+00 0.0000000000000000e+00 0.0000000000000000e+00
8.2000000000000011e+00 0.0000000000000000e+00 0.0000000000000000e+00
8.3000000000000007e+00 0.0000000000000000e+00 0.0000000000000000e+00
8.4000000000000004e+00 0.0000000000000000e+00 0.0000000000000000e+00
8.5000000000000000e+00 0.0000000000000000e+00 0.0000000000000000e+00
8.5999999999999996e+00 0.0000000000000000e+00 0.0000000000000000e+00
8.7000000000000011e+00 0.0000000000000000e+00 0.0000000000000000e+00
8.8000000000000007e+00 0.0000000000000000e+00 0.0000000000000000e+00
8.9000000000000004e+00 0.0000000000000000e+00 0.0000000000000000e+00
9.0000000000000000e+00 0.0000000000000000e+00 0.0000000000000000e+00
9.0999999999999996e+00 0.0000000000000000e+00 0.0000000000000000e+00
9.2000000000000011e+00 0.0000000000000000e+00 0.0000000000000000e+00
9.3000000000000007e+00 0.0000000000000000e+00 0.0000000000000000e+00
9.4000000000000004e+00 0.0000000000000000e+00 0.0000000000000000e+00
9.5000000000000000e+00 0.0000000000000000e+00 0.0000000000000000e+00
9.6000000000000014e+00 0.0000000000000000e+00 0.0000000000000000e+00
9.7000000000000011e+00 0.0000000000000000e+00 0.0000000000000000e+00
9.8000000000000007e+00 0.0000000000000000e+00 0.0000000000000000e+00
9.9000000000000004e+00 0.0000000000000000e+00 0.0000000000000000e+00
1.0000000000000000e+01 0.0000000000000000e+00 0.0000000000000000e+00

POINT_DATA 101

VECTORS velocity float
4.2994484389702121e+00 0.0000000000000000e+00 0.0000000000000000e+00
4.2990927824719591e+00 0.0000000000000000e+00 0.0000000000000000e+00
4.2987710022495298e+00 0.0000000000000000e+00 0.0000000000000000e+00
4.2984688454814686e+00 0.0000000000000000e+00 0.0000000000000000e+00
4.2981785281972416e+00 0.0000000000000000e+00 0.0000000000000000e+00
4.2978963893389208e+00 0.0000000000000000e+00 0.0000000000000000e+00
4.2976231882420048e+00 0.0000000000000000e+00 0.0000000000000000e+00
4.2973551875062945e+00 0.0000000000000000e+00 0.0000000000000000e+00
4.2970856188696152e+00 0.0000000000000000e+00 0.0000000000000000e+00
4.2968133681893139e+00 0.0000000000000000e+00 0.0000000000000000e+00
4.2965404417394453e+00 0.0000000000000000e+00 0.0000000000000000e+00
4.2962681713935522e+00 0.0000000000000000e+00 0.0000000000000000e+00
4.2959983008404627e+00 0.0000000000000000e+00 0.0000000000000000e+00
4.2957329242346631e+00 0.0000000000000000e+00 0.0000000000000000e+00
4.2954714695435738e+00 0.0000000000000000e+00 0.0000000000000000e+00
4.2952134724109667e+00 0.0000000000000000e+00 0.0000000000000000e+00
4.2949560058174718e+00 0.0000000000000000e+00 0.0000000000000000e+00
4.2946959905895028e+00 0.0000000000000000e+00 0.0000000000000000e+00
4.2944367131664993e+00 0.0000000000000000e+00 0.0000000000000000e+00
4.2941802409194070e+00 0.0000000000000000e+00 0.0000000000000000e+00
4.2939260469427660e+00 0.0000000000000000e+00 0.0000000000000000e+00
4.2936746584186869e+00 0.0000000000000000e+00 0.0000000000000000e+00
4.2934257920998888e+00 0.0000000000000000e+00 0.0000000000000000e+00
4.2931783634682317e+00 0.0000000000000000e+00 0.0000000000000000e+00
4.2929325537786109e+00 0.0000000000000000e+00 0.0000000000000000e+00
4.2926875787546370e+00 0.0000000000000000e+00 0.0000000000000000e+00
4.2924445322908653e+00 0.0000000000000000e+00 0.0000000000000000e+00
4.2922032720729781e+00 0.0000000000000000e+00 0.0000000000000000e+00
4.2919638827314728e+00 0.0000000000000000e+00 0.0000000000000000e+00
4.2917261019293660e+00 0.0000000000000000e+00 0.0000000000000000e+00
4.2914898885022215e+00 0.0000000000000000e+00 0.0000000000000000e+00
4.2912555434324684e+00 0.0000000000000000e+00 0.0000000000000000e+00
4.2910234897921358e+00 0.0000000000000000e+00 0.0000000000000000e+00
4.2907936016334638e+00 0.0000000000000000e+00 0.0000000000000000e+00
4.2905656203908098e+00 0.0000000000000000e+00 0.0000000000000000e+00
4.2903395201560173e+00 0.0000000000000000e+00 0.0000000000000000e+00
4.2901152770058575e+00 0.0000000000000000e+00 0.0000000000000000e+00
4.2898928749614553e+00 0.0000000000000000e+00 0.0000000000000000e+00
4.2896723224940612e+00 0.0000000000000000e+00 0.0000000000000000e+00
4.2894536058830139e+00 0.0000000000000000e+00 0.0000000000000000e+00
4.2892368391396580e+00 0.0000000000000000e+00 0.0000000000000000e+00
4.2890220502782830e+00 0.0000000000000000e+00 0.0000000000000000e+00
4.2888092597031875e+00 0.0000000000000000e+00 0.0000000000000000e+00
4.2885984837476716e+00 0.0000000000000000e+00 0.0000000000000000e+00
4.2883897350506812e+00 0.0000000000000000e+00 0.0000000000000000e+00
4.2881830222922188e+00 0.0000000000000000e+00 0.0000000000000000e+00
4.2879783538601144e+00 0.0000000000000000e+00 0.0000000000000000e+00
4.2877757411247099e+00 0.0000000000000000e+00 0.0000000000000000e+00
4.2875751945902509e+00 0.0000000000000000e+00 0.0000000000000000e+00
4.2873767233728186e+00 0.0000000000000000e+00 0.0000000000000000e+00
4.2871803356792020e+00 0.0000000000000000e+00 0.0000000000000000e+00
4.2869860402093192e+00 0.0000000000000000e+00 0.0000000000000000e+00
4.2867938458071277e+00 0.0000000000000000e+00 0.0000000000000000e+00
4.2866037615167487e+00 0.0000000000000000e+00 0.0000000000000000e+00
4.2864157962045679e+00 0.0000000000000000e+00 0.0000000000000000e+00
4.2862299584196810e+00 0.0000000000000000e+00 0.0000000000000000e+00
4.2860462558114172e+00 0.0000000000000000e+00 0.0000000000000000e+00
4.2858646961304281e+00 0.0000000000000000e+00 0.0000000000000000e+00
4.2856852883562215e+00 0.0000000000000000e+00 0.0000000000000000e+00
4.2855080404562207e+00 0.0000000000000000e+00 0.0000000000000000e+00
4.2853329602384997e+00 0.0000000000000000e+00 0.0000000000000000e+00
4.2851600559798300e+00 0.0000000000000000e+00 0.0000000000000000e+00
4.2849893356574489e+00 0.0000000000000000e+00 0.0000000000000000e+00
4.2848208062161994e+00 0.0000000000000000e+00 0.0000000000000000e+00
4.2846544748059925e+00 0.0000000000000000e+00 0.0000000000000000e+00
4.2844903486521728e+00 0.0000000000000000e+00 0.0000000000000000e+00
4.2843284347695363e+00 0.0000000000000000e+00 0.0000000000000000e+00
4.2841687401659687e+00 0.0000000000000000e+00 0.0000000000000000e+00
4.2840112717471399e+00 0.0000000000000000e+00 0.0000000000000000e+00
4.2838560362503655e+00 0.0000000000000000e+00 0.0000000000000000e+00
4.2837030403252223e+00 0.0000000000000000e+00 0.0000000000000000e+00
4.2835522906624277e+00 0.0000000000000000e+00 0.0000000000000000e+00
4.2834037939018348e+00 0.0000000000000000e+00 0.0000000000000000e+00
4.2832575564078130e+00 0.0000000000000000e+00 0.0000000000000000e+00
4.2831135846169239e+00 0.0000000000000000e+00 0.0000000000000000e+00
4.2829718841789894e+00 0.0000000000000000e+00 0.0000000000000000e+00
4.2828324611732276e+00 0.0000000000000000e+00 0.0000000000000000e+00
4.2826953209297418e+00 0.0000000000000000e+00 0.0000000000000000e+00
4.2825604697428039e+00 0.0000000000000000e+00 0.0000000000000000e+00
4.2824279149694915e+00 0.0000000000000000e+00 0.0000000000000000e+00
4.2822976606718166e+00 0.0000000000000000e+00 0.0000000000000000e+00
4.2821697118160396e+00 0.0000000000000000e+00 0.0000000000000000e+00
4.2820440737035392e+00 0.0000000000000000e+00 0.0000000000000000e+00
4.2819207528968093e+00 0.0000000000000000e+00 0.0000000000000000e+00
4.2817997535845302e+00 0.0000000000000000e+00 0.0000000000000000e+00
4.2816810791693971e+00 0.0000000000000000e+00 0.0000000000000000e+00
4.2815647328608080e+00 0.0000000000000000e+00 0.0000000000000000e+00
4.2814507198623568e+00 0.0000000000000000e+00 0.0000000000000000e+00
4.2813390493778085e+00 0.0000000000000000e+00 0.0000000000000000e+00
4.2812297240591510e+00 0.0000000000000000e+00 0.0000000000000000e+00
4.2811227487402874e+00 0.0000000000000000e+00 0.0000000000000000e+00
4.2810181246132410e+00 0.0000000000000000e+00 0.0000000000000000e+00
4.2809158566306751e+00 0.0000000000000000e+00 0.0000000000000000e+00
4.2808159511209967e+00 0.0000000000000000e+00 0.0000000000000000e+00
4.2807184070198954e+00 0.0000000000000000e+00 0.0000000000000000e+00
4.2806232428497175e+00 0.0000000000000000e+00 0.0000000000000000e+00
4.2805304156587889e+00 0.0000000000000000e+00 0.0000000000000000e+00
4.2804400677875787e+00 0.0000000000000000e+00 0.0000000000000000e+00
4.2803517976998231e+00 0.0000000000000000e+00 0.0000000000000000e+00
4.2802667702662029e+00 0.0000000000000000e+00 0.0000000000000000e+00
4.2801817428325828e+00 0.0000000000000000e+00 0.0000000000000000e+00


SCALARS pressure float
LOOKUP_TABLE default
-2.0102394660925970e+01
-1.9909058742259273e+01
-1.9715722823592575e+01
-1.9522298611973451e+01
-1.9328718295152267e+01
-1.9134945035469350e+01
-1.8940961762402392e+01
-1.8746770932479080e+01
-1.8552360008830856e+01
-1.8357702183604637e+01
-1.8162792312298741e+01
-1.7967640148157678e+01
-1.7772254444021296e+01
-1.7576645764472591e+01
-1.7380825952379194e+01
-1.7184795903246957e+01
-1.6988556760702842e+01
-1.6792099369735240e+01
-1.6595410379760104e+01
-1.6398502453808749e+01
-1.6201387896104389e+01
-1.6004069124870174e+01
-1.5806552358942440e+01
-1.5608841204304353e+01
-1.5410934561699165e+01
-1.5212831555564968e+01
-1.5014529068132989e+01
-1.4816034896069725e+01
-1.4617352215299974e+01
-1.4418484247206010e+01
-1.4219433019048797e+01
-1.4020201418034119e+01
-1.3820793685253227e+01
-1.3621214506044177e+01
-1.3421465867913161e+01
-1.3221548916062872e+01
-1.3021465797395877e+01
-1.2821218833049313e+01
-1.2620810432932849e+01
-1.2420243098561102e+01
-1.2219519392076650e+01
-1.2018642660512029e+01
-1.1817615908165566e+01
-1.1616442057341200e+01
-1.1415124002001312e+01
-1.1213664619297727e+01
-1.1012066769035574e+01
-1.0810333308684699e+01
-1.0608467110741268e+01
-1.0406471048790248e+01
-1.0204347992989122e+01
-1.0002100810621366e+01
-9.7997323722067922e+00
-9.5972455506784158e+00
-9.3946432216726219e+00
-9.1919282620911922e+00
-8.9891035495616887e+00
-8.7861719597654808e+00
-8.5831363694529088e+00
-8.3799996619476040e+00
-8.1767647187134251e+00
-7.9734344217012056e+00
-7.7700116564637769e+00
-7.5664993095358621e+00
-7.3629002646234332e+00
-7.1592174070873194e+00
-6.9554536239827627e+00
-6.7516118029088830e+00
-6.5476948326207145e+00
-6.3437056027194512e+00
-6.1396470033539838e+00
-5.9355219255862268e+00
-5.7313332620355251e+00
-5.5270839067287945e+00
-5.3227767538516391e+00
-5.1184146990923782e+00
-4.9140006361005648e+00
-4.7095374606551665e+00
-4.5050280668837148e+00
-4.3004753534012696e+00
-4.0958822257634591e+00
-3.8912515777173877e+00
-3.6865863059828317e+00
-3.4818893097864838e+00
-3.2771634944856931e+00
-3.0724117578753161e+00
-2.8676369944456543e+00
-2.6628420972356039e+00
-2.4580299682152575e+00
-2.2532035295890331e+00
-2.0483656790770461e+00
-1.8435193197215747e+00
-1.6386673424726121e+00
-1.4338126508978331e+00
-1.2289581623585475e+00
-1.0241067504484698e+00
-8.1926140344751641e-01
-6.1442477937857765e-01
-4.0960047514282333e-01
-2.0478945871550613e-01
0.0000000000000000e+00


SCALARS diameter float
LOOKUP_TABLE default
9.9818824019446128e-01
9.9821055662668179e-01
9.9822857518579222e-01
9.9824593236237980e-01
9.9826248036431786e-01
9.9827905740207157e-01
9.9829420707627370e-01
9.9830855658533113e-01
9.9832490216224734e-01
9.9834288875669130e-01
9.9836130559329128e-01
9.9837974180142874e-01
9.9839799383446715e-01
9.9841535767230760e-01
9.9843215564708010e-01
9.9844881287112219e-01
9.9846571671384998e-01
9.9848461347894124e-01
9.9850334382637573e-01
9.9852114051199814e-01
9.9853883929489828e-01
9.9855636640066880e-01
9.9857370841518311e-01
9.9859157835989898e-01
9.9860972404240234e-01
9.9862789838426391e-01
9.9864575102346964e-01
9.9866359377758895e-01
9.9868145360947369e-01
9.9869934519201831e-01
9.9871741709341311e-01
9.9873550936994615e-01
9.9875352506479276e-01
9.9877150610189602e-01
9.9878955106876621e-01
9.9880760830245197e-01
9.9882567919906173e-01
9.9884376474908132e-01
9.9886186442526470e-01
9.9887997847466814e-01
9.9889808845104311e-01
9.9891620834403194e-01
9.9893433984492508e-01
9.9895248262929814e-01
9.9897063666382790e-01
9.9898880258614386e-01
9.9900698097586704e-01
9.9902517037763905e-01
9.9904337038887880e-01
9.9906158100046794e-01
9.9907980252014850e-01
9.9909803467911329e-01
9.9911627723664542e-01
9.9913452985506779e-01
9.9915279221515974e-01
9.9917106419227519e-01
9.9918934570216700e-01
9.9920763700029280e-01
9.9922593719584252e-01
9.9924424622778729e-01
9.9926256396231627e-01
9.9928089003146359e-01
9.9929922405034133e-01
9.9931756618320344e-01
9.9933591629435681e-01
9.9935427410346378e-01
9.9937263945186827e-01
9.9939101213039205e-01
9.9940939188809885e-01
9.9942777854403086e-01
9.9944617186286944e-01
9.9946457161295210e-01
9.9948297748854686e-01
9.9950138934139932e-01
9.9951980691891074e-01
9.9953823005778875e-01
9.9955665879722988e-01
9.9957509253941990e-01
9.9959353163068210e-01
9.9961197439551897e-01
9.9963042186826190e-01
9.9964887388254720e-01
9.9966732996845986e-01
9.9968578975922873e-01
9.9970425260386897e-01
9.9972271994469475e-01
9.9974119071606982e-01
9.9975966587443232e-01
9.9977814180266522e-01
9.9979662065632913e-01
9.9981510152034891e-01
9.9983358505762587e-01
9.9985207113569963e-01
9.9987055812902137e-01
9.9988904693570402e-01
9.9990753675865818e-01
9.9992602787844509e-01
9.9994451996731071e-01
9.9996301236293750e-01
9.9998150408467890e-01
9.9999999571395848e-01


SCALARS iters float
LOOKUP_TABLE default
3.0000000000000000e+00
3.0000000000000000e+00
3.0000000000000000e+00
3.0000000000000000e+00
3.0000000000000000e+00
3.0000000000000000e+00
3.0000000000000000e+00
3.0000000000000000e+00
3.0000000000000000e+00
3.0000000000000000e+00
3.0000000000000000e+00
3.0000000000000000e+00
3.0000000000000000e+00
3.0000000000000000e+00
3.0000000000000000e+00
3.0000000000000000e+00
3.0000000000000000e+00
3.0000000000000000e+00
3.0000000000000000e+00
3.0000000000000000e+00
3.0000000000000000e+00
3.0000000000000000e+00
3.0000000000000000e+00
3.0000000000000000e+00
3.0000000000000000e+00
3.0000000000000000e+00
3.0000000000000000e+00
3.0000000000000000e+00
3.0000000000000000e+00
3.0000000000000000e+00
3.0000000000000000e+00
3.0000000000000000e+00
3.0000000000000000e+00
3.0000000000000000e+00
3.0000000000000000e+00
3.0000000000000000e+00
3.0000000000000000e+00
3.0000000000000000e+00
3.0000000000000000e+00
3.0000000000000000e+00
3.0000000000000000e+00
3.0000000000000000e+00
3.0000000000000000e+00
3.0000000000000000e+00
3.0000000000000000e+00
3.0000000000000000e+00
3.0000000000000000e+00
3.0000000000000000e+00
3.0000000000000000e+00
3.0000000000000000e+00
3.0000000000000000e+00
3.0000000000000000e+00
3.0000000000000000e+00
3.0000000000000000e+00
3.0000000000000000e+00
3.0000000000000000e+00
3.0000000000000000e+00
3.0000000000000000e+00
3.0000000000000000e+00
3.0000000000000000e+00
3.0000000000000000e+00
3.0000000000000000e+00
3.0000000000000000e+00
3.0000000000000000e+00
3.0000000000000000e+00
3.0000000000000000e+00
3.0000000000000000e+00
3.0000000000000000e+00
3.0000000000000000e+00
3.0000000000000000e+00
3.0000000000000000e+00
3.0000000000000000e+00
3.0000000000000000e+00
3.0000000000000000e+00
3.0000000000000000e+00
3.0000000000000000e+00
3.0000000000000000e+00
3.0000000000000000e+00
3.0000000000000000e+00
3.0000000000000000e+00
3.0000000000000000e+00
3.0000000000000000e+00
3.0000000000000000e+00
3.0000000000000000e+00
3.0000000000000000e+00
3.0000000000000000e+00
3.0000000000000000e+00
3.0000000000000000e+00
3.0000000000000000e+00
3.0000000000000000e+00
3.0000000000000000e+00
3.0000000000000000e+00
3.0000000000000000e+00
3.0000000000000000e+00
3.0000000000000000e+00
3.0000000000000000e+00
3.0000000000000000e+00
3.0000000000000000e+00
3.0000000000000000e+00
3.0000000000000000e+00
3.0000000000000000e+00


