# vtk DataFile Version 2.0

ASCII

DATASET UNSTRUCTURED_GRID

POINTS 101 float

0.0000000000000000e+00 0.0000000000000000e+00 0.0000000000000000e+00
1.0000000000000001e-01 0.0000000000000000e+00 0.0000000000000000e+00
2.0000000000000001e-01 0.0000000000000000e+00 0.0000000000000000e+00
3.0000000000000004e-01 0.0000000000000000e+00 0.0000000000000000e+00
4.0000000000000002e-01 0.0000000000000000e+00 0.0000000000000000e+00
5.0000000000000000e-01 0.0000000000000000e+00 0.0000000000000000e+00
6.0000000000000009e-01 0.0000000000000000e+00 0.0000000000000000e+00
7.0000000000000007e-01 0.0000000000000000e+00 0.0000000000000000e+00
8.0000000000000004e-01 0.0000000000000000e+00 0.0000000000000000e+00
9.0000000000000002e-01 0.0000000000000000e+00 0.0000000000000000e+00
1.0000000000000000e+00 0.0000000000000000e+00 0.0000000000000000e+00
1.1000000000000001e+00 0.0000000000000000e+00 0.0000000000000000e+00
1.2000000000000002e+00 0.0000000000000000e+00 0.0000000000000000e+00
1.3000000000000000e+00 0.0000000000000000e+00 0.0000000000000000e+00
1.4000000000000001e+00 0.0000000000000000e+00 0.0000000000000000e+00
1.5000000000000000e+00 0.0000000000000000e+00 0.0000000000000000e+00
1.6000000000000001e+00 0.0000000000000000e+00 0.0000000000000000e+00
1.7000000000000002e+00 0.0000000000000000e+00 0.0000000000000000e+00
1.8000000000000000e+00 0.0000000000000000e+00 0.0000000000000000e+00
1.9000000000000001e+00 0.0000000000000000e+00 0.0000000000000000e+00
2.0000000000000000e+00 0.0000000000000000e+00 0.0000000000000000e+00
2.1000000000000001e+00 0.0000000000000000e+00 0.0000000000000000e+00
2.2000000000000002e+00 0.0000000000000000e+00 0.0000000000000000e+00
2.3000000000000003e+00 0.0000000000000000e+00 0.0000000000000000e+00
2.4000000000000004e+00 0.0000000000000000e+00 0.0000000000000000e+00
2.5000000000000000e+00 0.0000000000000000e+00 0.0000000000000000e+00
2.6000000000000001e+00 0.0000000000000000e+00 0.0000000000000000e+00
2.7000000000000002e+00 0.0000000000000000e+00 0.0000000000000000e+00
2.8000000000000003e+00 0.0000000000000000e+00 0.0000000000000000e+00
2.9000000000000004e+00 0.0000000000000000e+00 0.0000000000000000e+00
3.0000000000000000e+00 0.0000000000000000e+00 0.0000000000000000e+00
3.1000000000000001e+00 0.0000000000000000e+00 0.0000000000000000e+00
3.2000000000000002e+00 0.0000000000000000e+00 0.0000000000000000e+00
3.3000000000000003e+00 0.0000000000000000e+00 0.0000000000000000e+00
3.4000000000000004e+00 0.0000000000000000e+00 0.0000000000000000e+00
3.5000000000000000e+00 0.0000000000000000e+00 0.0000000000000000e+00
3.6000000000000001e+00 0.0000000000000000e+00 0.0000000000000000e+00
3.7000000000000002e+00 0.0000000000000000e+00 0.0000000000000000e+00
3.8000000000000003e+00 0.0000000000000000e+00 0.0000000000000000e+00
3.9000000000000004e+00 0.0000000000000000e+00 0.0000000000000000e+00
4.0000000000000000e+00 0.0000000000000000e+00 0.0000000000000000e+00
4.1000000000000005e+00 0.0000000000000000e+00 0.0000000000000000e+00
4.2000000000000002e+00 0.0000000000000000e+00 0.0000000000000000e+00
4.2999999999999998e+00 0.0000000000000000e+00 0.0000000000000000e+00
4.4000000000000004e+00 0.0000000000000000e+00 0.0000000000000000e+00
4.5000000000000000e+00 0.0000000000000000e+00 0.0000000000000000e+00
4.6000000000000005e+00 0.0000000000000000e+00 0.0000000000000000e+00
4.7000000000000002e+00 0.0000000000000000e+00 0.0000000000000000e+00
4.8000000000000007e+00 0.0000000000000000e+00 0.0000000000000000e+00
4.9000000000000004e+00 0.0000000000000000e+00 0.0000000000000000e+00
5.0000000000000000e+00 0.0000000000000000e+00 0.0000000000000000e+00
5.1000000000000005e+00 0.0000000000000000e+00 0.0000000000000000e+00
5.2000000000000002e+00 0.0000000000000000e+00 0.0000000000000000e+00
5.3000000000000007e+00 0.0000000000000000e+00 0.0000000000000000e+00
5.4000000000000004e+00 0.0000000000000000e+00 0.0000000000000000e+00
5.5000000000000000e+00 0.0000000000000000e+00 0.0000000000000000e+00
5.6000000000000005e+00 0.0000000000000000e+00 0.0000000000000000e+00
5.7000000000000002e+00 0.0000000000000000e+00 0.0000000000000000e+00
5.8000000000000007e+00 0.0000000000000000e+00 0.0000000000000000e+00
5.9000000000000004e+00 0.0000000000000000e+00 0.0000000000000000e+00
6.0000000000000000e+00 0.0000000000000000e+00 0.0000000000000000e+00
6.1000000000000005e+00 0.0000000000000000e+00 0.0000000000000000e+00
6.2000000000000002e+00 0.0000000000000000e+00 0.0000000000000000e+00
6.3000000000000007e+00 0.0000000000000000e+00 0.0000000000000000e+00
6.4000000000000004e+00 0.0000000000000000e+00 0.0000000000000000e+00
6.5000000000000000e+00 0.0000000000000000e+00 0.0000000000000000e+00
6.6000000000000005e+00 0.0000000000000000e+00 0.0000000000000000e+00
6.7000000000000002e+00 0.0000000000000000e+00 0.0000000000000000e+00
6.8000000000000007e+00 0.0000000000000000e+00 0.0000000000000000e+00
6.9000000000000004e+00 0.0000000000000000e+00 0.0000000000000000e+00
7.0000000000000000e+00 0.0000000000000000e+00 0.0000000000000000e+00
7.1000000000000005e+00 0.0000000000000000e+00 0.0000000000000000e+00
7.2000000000000002e+00 0.0000000000000000e+00 0.0000000000000000e+00
7.3000000000000007e+00 0.0000000000000000e+00 0.0000000000000000e+00
7.4000000000000004e+00 0.0000000000000000e+00 0.0000000000000000e+00
7.5000000000000000e+00 0.0000000000000000e+00 0.0000000000000000e+00
7.6000000000000005e+00 0.0000000000000000e+00 0.0000000000000000e+00
7.7000000000000002e+00 0.0000000000000000e+00 0.0000000000000000e+00
7.8000000000000007e+00 0.0000000000000000e+00 0.0000000000000000e+00
7.9000000000000004e+00 0.0000000000000000e+00 0.0000000000000000e+00
8.0000000000000000e+00 0.0000000000000000e+00 0.0000000000000000e+00
8.0999999999999996e+00 0.0000000000000000e+00 0.0000000000000000e+00
8.2000000000000011e+00 0.0000000000000000e+00 0.0000000000000000e+00
8.3000000000000007e+00 0.0000000000000000e+00 0.0000000000000000e+00
8.4000000000000004e+00 0.0000000000000000e+00 0.0000000000000000e+00
8.5000000000000000e+00 0.0000000000000000e+00 0.0000000000000000e+00
8.5999999999999996e+00 0.0000000000000000e+00 0.0000000000000000e+00
8.7000000000000011e+00 0.0000000000000000e+00 0.0000000000000000e+00
8.8000000000000007e+00 0.0000000000000000e+00 0.0000000000000000e+00
8.9000000000000004e+00 0.0000000000000000e+00 0.0000000000000000e+00
9.0000000000000000e+00 0.0000000000000000e+00 0.0000000000000000e+00
9.0999999999999996e+00 0.0000000000000000e+00 0.0000000000000000e+00
9.2000000000000011e+00 0.0000000000000000e+00 0.0000000000000000e+00
9.3000000000000007e+00 0.0000000000000000e+00 0.0000000000000000e+00
9.4000000000000004e+00 0.0000000000000000e+00 0.0000000000000000e+00
9.5000000000000000e+00 0.0000000000000000e+00 0.0000000000000000e+00
9.6000000000000014e+00 0.0000000000000000e+00 0.0000000000000000e+00
9.7000000000000011e+00 0.0000000000000000e+00 0.0000000000000000e+00
9.8000000000000007e+00 0.0000000000000000e+00 0.0000000000000000e+00
9.9000000000000004e+00 0.0000000000000000e+00 0.0000000000000000e+00
1.0000000000000000e+01 0.0000000000000000e+00 0.0000000000000000e+00

POINT_DATA 101

VECTORS velocity float
5.0584274186885825e+00 0.0000000000000000e+00 0.0000000000000000e+00
5.0596897867628616e+00 0.0000000000000000e+00 0.0000000000000000e+00
5.0609792087554339e+00 0.0000000000000000e+00 0.0000000000000000e+00
5.0622798487033496e+00 0.0000000000000000e+00 0.0000000000000000e+00
5.0635790471799060e+00 0.0000000000000000e+00 0.0000000000000000e+00
5.0648741806595678e+00 0.0000000000000000e+00 0.0000000000000000e+00
5.0661686379625070e+00 0.0000000000000000e+00 0.0000000000000000e+00
5.0674543903657199e+00 0.0000000000000000e+00 0.0000000000000000e+00
5.0687223627232640e+00 0.0000000000000000e+00 0.0000000000000000e+00
5.0699714798129092e+00 0.0000000000000000e+00 0.0000000000000000e+00
5.0712035409803899e+00 0.0000000000000000e+00 0.0000000000000000e+00
5.0724197858650468e+00 0.0000000000000000e+00 0.0000000000000000e+00
5.0736222784008689e+00 0.0000000000000000e+00 0.0000000000000000e+00
5.0748149245018519e+00 0.0000000000000000e+00 0.0000000000000000e+00
5.0759975945212377e+00 0.0000000000000000e+00 0.0000000000000000e+00
5.0771670461709917e+00 0.0000000000000000e+00 0.0000000000000000e+00
5.0783203216047834e+00 0.0000000000000000e+00 0.0000000000000000e+00
5.0794585569652115e+00 0.0000000000000000e+00 0.0000000000000000e+00
5.0805845438728747e+00 0.0000000000000000e+00 0.0000000000000000e+00
5.0816987961883662e+00 0.0000000000000000e+00 0.0000000000000000e+00
5.0827994786471136e+00 0.0000000000000000e+00 0.0000000000000000e+00
5.0838839687740309e+00 0.0000000000000000e+00 0.0000000000000000e+00
5.0849501229710681e+00 0.0000000000000000e+00 0.0000000000000000e+00
5.0859984702372953e+00 0.0000000000000000e+00 0.0000000000000000e+00
5.0870424122802245e+00 0.0000000000000000e+00 0.0000000000000000e+00
5.0880804555207622e+00 0.0000000000000000e+00 0.0000000000000000e+00
5.0890989458631086e+00 0.0000000000000000e+00 0.0000000000000000e+00
5.0901016344421066e+00 0.0000000000000000e+00 0.0000000000000000e+00
5.0910894511723379e+00 0.0000000000000000e+00 0.0000000000000000e+00
5.0920615999790382e+00 0.0000000000000000e+00 0.0000000000000000e+00
5.0930174264048915e+00 0.0000000000000000e+00 0.0000000000000000e+00
5.0939576726678339e+00 0.0000000000000000e+00 0.0000000000000000e+00
5.0948828974262881e+00 0.0000000000000000e+00 0.0000000000000000e+00
5.0957941924307750e+00 0.0000000000000000e+00 0.0000000000000000e+00
5.0966914363599365e+00 0.0000000000000000e+00 0.0000000000000000e+00
5.0975743349591802e+00 0.0000000000000000e+00 0.0000000000000000e+00
5.0984427076070551e+00 0.0000000000000000e+00 0.0000000000000000e+00
5.0992966396866599e+00 0.0000000000000000e+00 0.0000000000000000e+00
5.1001356744267063e+00 0.0000000000000000e+00 0.0000000000000000e+00
5.1009610615692988e+00 0.0000000000000000e+00 0.0000000000000000e+00
5.1017737269995287e+00 0.0000000000000000e+00 0.0000000000000000e+00
5.1025724576589990e+00 0.0000000000000000e+00 0.0000000000000000e+00
5.1033568799716553e+00 0.0000000000000000e+00 0.0000000000000000e+00
5.1041267842519105e+00 0.0000000000000000e+00 0.0000000000000000e+00
5.1048820470420626e+00 0.0000000000000000e+00 0.0000000000000000e+00
5.1056225930706134e+00 0.0000000000000000e+00 0.0000000000000000e+00
5.1063483720332030e+00 0.0000000000000000e+00 0.0000000000000000e+00
5.1070593452788300e+00 0.0000000000000000e+00 0.0000000000000000e+00
5.1077554825124567e+00 0.0000000000000000e+00 0.0000000000000000e+00
5.1084367581721484e+00 0.0000000000000000e+00 0.0000000000000000e+00
5.1091031500189672e+00 0.0000000000000000e+00 0.0000000000000000e+00
5.1097546366054916e+00 0.0000000000000000e+00 0.0000000000000000e+00
5.1103911975691974e+00 0.0000000000000000e+00 0.0000000000000000e+00
5.1110128137304951e+00 0.0000000000000000e+00 0.0000000000000000e+00
5.1116194663028391e+00 0.0000000000000000e+00 0.0000000000000000e+00
5.1122111360349516e+00 0.0000000000000000e+00 0.0000000000000000e+00
5.1127878039371737e+00 0.0000000000000000e+00 0.0000000000000000e+00
5.1133494532918506e+00 0.0000000000000000e+00 0.0000000000000000e+00
5.1138960673253262e+00 0.0000000000000000e+00 0.0000000000000000e+00
5.1144276290679160e+00 0.0000000000000000e+00 0.0000000000000000e+00
5.1149441222090930e+00 0.0000000000000000e+00 0.0000000000000000e+00
5.1154455309473184e+00 0.0000000000000000e+00 0.0000000000000000e+00
5.1159318394380939e+00 0.0000000000000000e+00 0.0000000000000000e+00
5.1164030323493312e+00 0.0000000000000000e+00 0.0000000000000000e+00
5.1168590949752373e+00 0.0000000000000000e+00 0.0000000000000000e+00
5.1173000129601443e+00 0.0000000000000000e+00 0.0000000000000000e+00
5.1177257723360858e+00 0.0000000000000000e+00 0.0000000000000000e+00
5.1181363597041543e+00 0.0000000000000000e+00 0.0000000000000000e+00
5.1185317620645527e+00 0.0000000000000000e+00 0.0000000000000000e+00
5.1189119668033953e+00 0.0000000000000000e+00 0.0000000000000000e+00
5.1192769615202005e+00 0.0000000000000000e+00 0.0000000000000000e+00
5.1196267341508772e+00 0.0000000000000000e+00 0.0000000000000000e+00
5.1199612728357442e+00 0.0000000000000000e+00 0.0000000000000000e+00
5.1202805664870334e+00 0.0000000000000000e+00 0.0000000000000000e+00
5.1205846045579531e+00 0.0000000000000000e+00 0.0000000000000000e+00
5.1208733765560588e+00 0.0000000000000000e+00 0.0000000000000000e+00
5.1211468733520542e+00 0.0000000000000000e+00 0.0000000000000000e+00
5.1214050849201715e+00 0.0000000000000000e+00 0.0000000000000000e+00
5.1216480028045011e+00 0.0000000000000000e+00 0.0000000000000000e+00
5.1218756180016545e+00 0.0000000000000000e+00 0.0000000000000000e+00
5.1220879216284469e+00 0.0000000000000000e+00 0.0000000000000000e+00
5.1222849063363425e+00 0.0000000000000000e+00 0.0000000000000000e+00
5.1224665644375609e+00 0.0000000000000000e+00 0.0000000000000000e+00
5.1226328900032074e+00 0.0000000000000000e+00 0.0000000000000000e+00
5.1227838750104002e+00 0.0000000000000000e+00 0.0000000000000000e+00
5.1229195131213281e+00 0.0000000000000000e+00 0.0000000000000000e+00
5.1230397996070076e+00 0.0000000000000000e+00 0.0000000000000000e+00
5.1231447265107528e+00 0.0000000000000000e+00 0.0000000000000000e+00
5.1232342876686099e+00 0.0000000000000000e+00 0.0000000000000000e+00
5.1233084803421498e+00 0.0000000000000000e+00 0.0000000000000000e+00
5.1233673055398681e+00 0.0000000000000000e+00 0.0000000000000000e+00
5.1234107528423554e+00 0.0000000000000000e+00 0.0000000000000000e+00
5.1234388275132021e+00 0.0000000000000000e+00 0.0000000000000000e+00
5.1234514985415140e+00 0.0000000000000000e+00 0.0000000000000000e+00
5.1234488415045822e+00 0.0000000000000000e+00 0.0000000000000000e+00
5.1234306519578565e+00 0.0000000000000000e+00 0.0000000000000000e+00
5.1233974446940014e+00 0.0000000000000000e+00 0.0000000000000000e+00
5.1233479023932427e+00 0.0000000000000000e+00 0.0000000000000000e+00
5.1232853704579115e+00 0.0000000000000000e+00 0.0000000000000000e+00
5.1232013553991207e+00 0.0000000000000000e+00 0.0000000000000000e+00
5.1231173403403298e+00 0.0000000000000000e+00 0.0000000000000000e+00


SCALARS pressure float
LOOKUP_TABLE default
-2.6005940113988775e+01
-2.5757351672665727e+01
-2.5508763231342684e+01
-2.5260043397514025e+01
-2.5011131347522063e+01
-2.4761979714992901e+01
-2.4512579711092702e+01
-2.4262952712803251e+01
-2.4013073087628751e+01
-2.3762898860491791e+01
-2.3512418054892414e+01
-2.3261636552167037e+01
-2.3010561632165256e+01
-2.2759204303160445e+01
-2.2507584341547833e+01
-2.2255706863438675e+01
-2.2003560083072074e+01
-2.1751130691916075e+01
-2.1498424165169627e+01
-2.1245456248339853e+01
-2.0992234490761209e+01
-2.0738754363660121e+01
-2.0485004191094120e+01
-2.0230971629545504e+01
-1.9976655589910930e+01
-1.9722118031994281e+01
-1.9467369954621297e+01
-1.9212354896785360e+01
-1.8957078488803862e+01
-1.8701546511843791e+01
-1.8445757629556141e+01
-1.8189709606529558e+01
-1.7933405983260897e+01
-1.7676850798830891e+01
-1.7420051047670324e+01
-1.7163009196723706e+01
-1.6905725989092971e+01
-1.6648202264783375e+01
-1.6390439959766663e+01
-1.6132438942441723e+01
-1.5874205701366277e+01
-1.5615746589117604e+01
-1.5357058961351827e+01
-1.5098141985412264e+01
-1.4838995830194916e+01
-1.4579621199490742e+01
-1.4320019092160967e+01
-1.4060190662343571e+01
-1.3800137137133328e+01
-1.3539859788291889e+01
-1.3279359912981157e+01
-1.3018638825255451e+01
-1.2757697843273773e+01
-1.2496538288488740e+01
-1.2235161486112810e+01
-1.1973568761766638e+01
-1.1711761436857840e+01
-1.1449740831128040e+01
-1.1187508272382894e+01
-1.0925065087995254e+01
-1.0662412602843178e+01
-1.0399552142711668e+01
-1.0136485034119914e+01
-9.8732126019264115e+00
-9.6097361716727612e+00
-9.3460570705295591e+00
-9.0821766263277457e+00
-8.8180961676214817e+00
-8.5538170245737390e+00
-8.2893405284746979e+00
-8.0246680116824241e+00
-7.7598008068403042e+00
-7.4947402472218716e+00
-7.2294876661946805e+00
-6.9640443998305557e+00
-6.6984117864796060e+00
-6.4325911647953724e+00
-6.1665838791849463e+00
-5.9003912710042901e+00
-5.6340146875096497e+00
-5.3674554738836813e+00
-5.1007149754444550e+00
-4.8337945442920516e+00
-4.5666955323531671e+00
-4.2994192991775311e+00
-4.0319671967051711e+00
-3.7643405831013608e+00
-3.4965408258009889e+00
-3.2285692796383749e+00
-2.9604273031119694e+00
-2.6921162721159155e+00
-2.4236375835083499e+00
-2.1549925902899272e+00
-1.8861827025866635e+00
-1.6172091899450549e+00
-1.3480737448234399e+00
-1.0787769652665140e+00
-8.0932225164756633e-01
-5.3970590183868772e-01
-2.6994222105141324e-01
0.0000000000000000e+00


SCALARS diameter float
LOOKUP_TABLE default
9.9767355646993161e-01
9.9769883686629113e-01
9.9772143523082890e-01
9.9774187835247963e-01
9.9776199551745248e-01
9.9778230374348087e-01
9.9779989980023720e-01
9.9781731163427390e-01
9.9783778633514453e-01
9.9786024392114370e-01
9.9788356827023916e-01
9.9790709904879771e-01
9.9793070717911214e-01
9.9795306781932502e-01
9.9797426463170891e-01
9.9799578575878001e-01
9.9801820472666858e-01
9.9804117642222734e-01
9.9806355047866802e-01
9.9808541378048443e-01
9.9810738973405855e-01
9.9813035398026106e-01
9.9815448057222933e-01
9.9817954051311319e-01
9.9820210368444795e-01
9.9822037077028536e-01
9.9824313439787515e-01
9.9826604773073202e-01
9.9828900184911340e-01
9.9831206237031367e-01
9.9833582949858557e-01
9.9835964505080244e-01
9.9838357644233766e-01
9.9840717217929031e-01
9.9843063453686320e-01
9.9845414123405829e-01
9.9847769387398200e-01
9.9850129328335469e-01
9.9852493901224004e-01
9.9854858121914036e-01
9.9857146183092360e-01
9.9859438223594010e-01
9.9861734514681355e-01
9.9864034966803705e-01
9.9866339525099601e-01
9.9868648101941515e-01
9.9870960589903901e-01
9.9873277008078309e-01
9.9875597297414287e-01
9.9877921394018487e-01
9.9880249202674987e-01
9.9882580665179466e-01
9.9884915731475599e-01
9.9887254316883212e-01
9.9889596362185140e-01
9.9891941815120833e-01
9.9894290659645812e-01
9.9896642785159973e-01
9.9898998115274795e-01
9.9901356601052094e-01
9.9903718183269885e-01
9.9906082789001049e-01
9.9908450367133517e-01
9.9910820858393845e-01
9.9913194197935484e-01
9.9915570320352032e-01
9.9917949167180919e-01
9.9920330670320079e-01
9.9922714764740306e-01
9.9925101386234294e-01
9.9927490475106806e-01
9.9929881976257873e-01
9.9932275830801454e-01
9.9934671981503942e-01
9.9937070344915835e-01
9.9939470875930581e-01
9.9941873486380028e-01
9.9944278118711627e-01
9.9946684729407731e-01
9.9949093210444462e-01
9.9951503578335943e-01
9.9953915691856621e-01
9.9956329544784794e-01
9.9958745005089455e-01
9.9961162062721010e-01
9.9963580674151786e-01
9.9966000719401416e-01
9.9968422189652673e-01
9.9970845132426056e-01
9.9973269292238198e-01
9.9975694594686315e-01
9.9978120926787950e-01
9.9980548520874513e-01
9.9982977052510436e-01
9.9985406550723566e-01
9.9987836939713004e-01
9.9990268149137473e-01
9.9992700116876188e-01
9.9995132778313556e-01
9.9997566111986502e-01
1.0000000028386600e+00


SCALARS iters float
LOOKUP_TABLE default
3.0000000000000000e+00
3.0000000000000000e+00
3.0000000000000000e+00
3.0000000000000000e+00
3.0000000000000000e+00
3.0000000000000000e+00
3.0000000000000000e+00
3.0000000000000000e+00
3.0000000000000000e+00
3.0000000000000000e+00
3.0000000000000000e+00
3.0000000000000000e+00
3.0000000000000000e+00
3.0000000000000000e+00
3.0000000000000000e+00
3.0000000000000000e+00
3.0000000000000000e+00
3.0000000000000000e+00
3.0000000000000000e+00
3.0000000000000000e+00
3.0000000000000000e+00
3.0000000000000000e+00
3.0000000000000000e+00
3.0000000000000000e+00
3.0000000000000000e+00
3.0000000000000000e+00
3.0000000000000000e+00
3.0000000000000000e+00
3.0000000000000000e+00
3.0000000000000000e+00
3.0000000000000000e+00
3.0000000000000000e+00
3.0000000000000000e+00
3.0000000000000000e+00
3.0000000000000000e+00
3.0000000000000000e+00
3.0000000000000000e+00
3.0000000000000000e+00
3.0000000000000000e+00
3.0000000000000000e+00
3.0000000000000000e+00
3.0000000000000000e+00
3.0000000000000000e+00
3.0000000000000000e+00
3.0000000000000000e+00
3.0000000000000000e+00
3.0000000000000000e+00
3.0000000000000000e+00
3.0000000000000000e+00
3.0000000000000000e+00
3.0000000000000000e+00
3.0000000000000000e+00
3.0000000000000000e+00
3.0000000000000000e+00
3.0000000000000000e+00
3.0000000000000000e+00
3.0000000000000000e+00
3.0000000000000000e+00
3.0000000000000000e+00
3.0000000000000000e+00
3.0000000000000000e+00
3.0000000000000000e+00
3.0000000000000000e+00
3.0000000000000000e+00
3.0000000000000000e+00
3.0000000000000000e+00
3.0000000000000000e+00
3.0000000000000000e+00
3.0000000000000000e+00
3.0000000000000000e+00
3.0000000000000000e+00
3.0000000000000000e+00
3.0000000000000000e+00
3.0000000000000000e+00
3.0000000000000000e+00
3.0000000000000000e+00
3.0000000000000000e+00
3.0000000000000000e+00
3.0000000000000000e+00
3.0000000000000000e+00
3.0000000000000000e+00
3.0000000000000000e+00
3.0000000000000000e+00
3.0000000000000000e+00
3.0000000000000000e+00
3.0000000000000000e+00
3.0000000000000000e+00
3.0000000000000000e+00
3.0000000000000000e+00
3.0000000000000000e+00
3.0000000000000000e+00
3.0000000000000000e+00
3.0000000000000000e+00
3.0000000000000000e+00
3.0000000000000000e+00
3.0000000000000000e+00
3.0000000000000000e+00
3.0000000000000000e+00
3.0000000000000000e+00
3.0000000000000000e+00
3.0000000000000000e+00


