# vtk DataFile Version 2.0

ASCII

DATASET UNSTRUCTURED_GRID

POINTS 101 float

0.0000000000000000e+00 0.0000000000000000e+00 0.0000000000000000e+00
1.0000000000000001e-01 0.0000000000000000e+00 0.0000000000000000e+00
2.0000000000000001e-01 0.0000000000000000e+00 0.0000000000000000e+00
3.0000000000000004e-01 0.0000000000000000e+00 0.0000000000000000e+00
4.0000000000000002e-01 0.0000000000000000e+00 0.0000000000000000e+00
5.0000000000000000e-01 0.0000000000000000e+00 0.0000000000000000e+00
6.0000000000000009e-01 0.0000000000000000e+00 0.0000000000000000e+00
7.0000000000000007e-01 0.0000000000000000e+00 0.0000000000000000e+00
8.0000000000000004e-01 0.0000000000000000e+00 0.0000000000000000e+00
9.0000000000000002e-01 0.0000000000000000e+00 0.0000000000000000e+00
1.0000000000000000e+00 0.0000000000000000e+00 0.0000000000000000e+00
1.1000000000000001e+00 0.0000000000000000e+00 0.0000000000000000e+00
1.2000000000000002e+00 0.0000000000000000e+00 0.0000000000000000e+00
1.3000000000000000e+00 0.0000000000000000e+00 0.0000000000000000e+00
1.4000000000000001e+00 0.0000000000000000e+00 0.0000000000000000e+00
1.5000000000000000e+00 0.0000000000000000e+00 0.0000000000000000e+00
1.6000000000000001e+00 0.0000000000000000e+00 0.0000000000000000e+00
1.7000000000000002e+00 0.0000000000000000e+00 0.0000000000000000e+00
1.8000000000000000e+00 0.0000000000000000e+00 0.0000000000000000e+00
1.9000000000000001e+00 0.0000000000000000e+00 0.0000000000000000e+00
2.0000000000000000e+00 0.0000000000000000e+00 0.0000000000000000e+00
2.1000000000000001e+00 0.0000000000000000e+00 0.0000000000000000e+00
2.2000000000000002e+00 0.0000000000000000e+00 0.0000000000000000e+00
2.3000000000000003e+00 0.0000000000000000e+00 0.0000000000000000e+00
2.4000000000000004e+00 0.0000000000000000e+00 0.0000000000000000e+00
2.5000000000000000e+00 0.0000000000000000e+00 0.0000000000000000e+00
2.6000000000000001e+00 0.0000000000000000e+00 0.0000000000000000e+00
2.7000000000000002e+00 0.0000000000000000e+00 0.0000000000000000e+00
2.8000000000000003e+00 0.0000000000000000e+00 0.0000000000000000e+00
2.9000000000000004e+00 0.0000000000000000e+00 0.0000000000000000e+00
3.0000000000000000e+00 0.0000000000000000e+00 0.0000000000000000e+00
3.1000000000000001e+00 0.0000000000000000e+00 0.0000000000000000e+00
3.2000000000000002e+00 0.0000000000000000e+00 0.0000000000000000e+00
3.3000000000000003e+00 0.0000000000000000e+00 0.0000000000000000e+00
3.4000000000000004e+00 0.0000000000000000e+00 0.0000000000000000e+00
3.5000000000000000e+00 0.0000000000000000e+00 0.0000000000000000e+00
3.6000000000000001e+00 0.0000000000000000e+00 0.0000000000000000e+00
3.7000000000000002e+00 0.0000000000000000e+00 0.0000000000000000e+00
3.8000000000000003e+00 0.0000000000000000e+00 0.0000000000000000e+00
3.9000000000000004e+00 0.0000000000000000e+00 0.0000000000000000e+00
4.0000000000000000e+00 0.0000000000000000e+00 0.0000000000000000e+00
4.1000000000000005e+00 0.0000000000000000e+00 0.0000000000000000e+00
4.2000000000000002e+00 0.0000000000000000e+00 0.0000000000000000e+00
4.2999999999999998e+00 0.0000000000000000e+00 0.0000000000000000e+00
4.4000000000000004e+00 0.0000000000000000e+00 0.0000000000000000e+00
4.5000000000000000e+00 0.0000000000000000e+00 0.0000000000000000e+00
4.6000000000000005e+00 0.0000000000000000e+00 0.0000000000000000e+00
4.7000000000000002e+00 0.0000000000000000e+00 0.0000000000000000e+00
4.8000000000000007e+00 0.0000000000000000e+00 0.0000000000000000e+00
4.9000000000000004e+00 0.0000000000000000e+00 0.0000000000000000e+00
5.0000000000000000e+00 0.0000000000000000e+00 0.0000000000000000e+00
5.1000000000000005e+00 0.0000000000000000e+00 0.0000000000000000e+00
5.2000000000000002e+00 0.0000000000000000e+00 0.0000000000000000e+00
5.3000000000000007e+00 0.0000000000000000e+00 0.0000000000000000e+00
5.4000000000000004e+00 0.0000000000000000e+00 0.0000000000000000e+00
5.5000000000000000e+00 0.0000000000000000e+00 0.0000000000000000e+00
5.6000000000000005e+00 0.0000000000000000e+00 0.0000000000000000e+00
5.7000000000000002e+00 0.0000000000000000e+00 0.0000000000000000e+00
5.8000000000000007e+00 0.0000000000000000e+00 0.0000000000000000e+00
5.9000000000000004e+00 0.0000000000000000e+00 0.0000000000000000e+00
6.0000000000000000e+00 0.0000000000000000e+00 0.0000000000000000e+00
6.1000000000000005e+00 0.0000000000000000e+00 0.0000000000000000e+00
6.2000000000000002e+00 0.0000000000000000e+00 0.0000000000000000e+00
6.3000000000000007e+00 0.0000000000000000e+00 0.0000000000000000e+00
6.4000000000000004e+00 0.0000000000000000e+00 0.0000000000000000e+00
6.5000000000000000e+00 0.0000000000000000e+00 0.0000000000000000e+00
6.6000000000000005e+00 0.0000000000000000e+00 0.0000000000000000e+00
6.7000000000000002e+00 0.0000000000000000e+00 0.0000000000000000e+00
6.8000000000000007e+00 0.0000000000000000e+00 0.0000000000000000e+00
6.9000000000000004e+00 0.0000000000000000e+00 0.0000000000000000e+00
7.0000000000000000e+00 0.0000000000000000e+00 0.0000000000000000e+00
7.1000000000000005e+00 0.0000000000000000e+00 0.0000000000000000e+00
7.2000000000000002e+00 0.0000000000000000e+00 0.0000000000000000e+00
7.3000000000000007e+00 0.0000000000000000e+00 0.0000000000000000e+00
7.4000000000000004e+00 0.0000000000000000e+00 0.0000000000000000e+00
7.5000000000000000e+00 0.0000000000000000e+00 0.0000000000000000e+00
7.6000000000000005e+00 0.0000000000000000e+00 0.0000000000000000e+00
7.7000000000000002e+00 0.0000000000000000e+00 0.0000000000000000e+00
7.8000000000000007e+00 0.0000000000000000e+00 0.0000000000000000e+00
7.9000000000000004e+00 0.0000000000000000e+00 0.0000000000000000e+00
8.0000000000000000e+00 0.0000000000000000e+00 0.0000000000000000e+00
8.0999999999999996e+00 0.0000000000000000e+00 0.0000000000000000e+00
8.2000000000000011e+00 0.0000000000000000e+00 0.0000000000000000e+00
8.3000000000000007e+00 0.0000000000000000e+00 0.0000000000000000e+00
8.4000000000000004e+00 0.0000000000000000e+00 0.0000000000000000e+00
8.5000000000000000e+00 0.0000000000000000e+00 0.0000000000000000e+00
8.5999999999999996e+00 0.0000000000000000e+00 0.0000000000000000e+00
8.7000000000000011e+00 0.0000000000000000e+00 0.0000000000000000e+00
8.8000000000000007e+00 0.0000000000000000e+00 0.0000000000000000e+00
8.9000000000000004e+00 0.0000000000000000e+00 0.0000000000000000e+00
9.0000000000000000e+00 0.0000000000000000e+00 0.0000000000000000e+00
9.0999999999999996e+00 0.0000000000000000e+00 0.0000000000000000e+00
9.2000000000000011e+00 0.0000000000000000e+00 0.0000000000000000e+00
9.3000000000000007e+00 0.0000000000000000e+00 0.0000000000000000e+00
9.4000000000000004e+00 0.0000000000000000e+00 0.0000000000000000e+00
9.5000000000000000e+00 0.0000000000000000e+00 0.0000000000000000e+00
9.6000000000000014e+00 0.0000000000000000e+00 0.0000000000000000e+00
9.7000000000000011e+00 0.0000000000000000e+00 0.0000000000000000e+00
9.8000000000000007e+00 0.0000000000000000e+00 0.0000000000000000e+00
9.9000000000000004e+00 0.0000000000000000e+00 0.0000000000000000e+00
1.0000000000000000e+01 0.0000000000000000e+00 0.0000000000000000e+00

POINT_DATA 101

VECTORS velocity float
5.0947395949589307e+00 0.0000000000000000e+00 0.0000000000000000e+00
5.0948510922939354e+00 0.0000000000000000e+00 0.0000000000000000e+00
5.0949365052040427e+00 0.0000000000000000e+00 0.0000000000000000e+00
5.0950037689058423e+00 0.0000000000000000e+00 0.0000000000000000e+00
5.0950601533051039e+00 0.0000000000000000e+00 0.0000000000000000e+00
5.0951115747879507e+00 0.0000000000000000e+00 0.0000000000000000e+00
5.0951625264307152e+00 0.0000000000000000e+00 0.0000000000000000e+00
5.0952155772178989e+00 0.0000000000000000e+00 0.0000000000000000e+00
5.0952685017982056e+00 0.0000000000000000e+00 0.0000000000000000e+00
5.0953191639697959e+00 0.0000000000000000e+00 0.0000000000000000e+00
5.0953686657749389e+00 0.0000000000000000e+00 0.0000000000000000e+00
5.0954177091758117e+00 0.0000000000000000e+00 0.0000000000000000e+00
5.0954673053888877e+00 0.0000000000000000e+00 0.0000000000000000e+00
5.0955196662938551e+00 0.0000000000000000e+00 0.0000000000000000e+00
5.0955748062135804e+00 0.0000000000000000e+00 0.0000000000000000e+00
5.0956322250620580e+00 0.0000000000000000e+00 0.0000000000000000e+00
5.0956882827266412e+00 0.0000000000000000e+00 0.0000000000000000e+00
5.0957402768846016e+00 0.0000000000000000e+00 0.0000000000000000e+00
5.0957913440732590e+00 0.0000000000000000e+00 0.0000000000000000e+00
5.0958431113594216e+00 0.0000000000000000e+00 0.0000000000000000e+00
5.0958954212163992e+00 0.0000000000000000e+00 0.0000000000000000e+00
5.0959486546983968e+00 0.0000000000000000e+00 0.0000000000000000e+00
5.0960039495370513e+00 0.0000000000000000e+00 0.0000000000000000e+00
5.0960617806588608e+00 0.0000000000000000e+00 0.0000000000000000e+00
5.0961207803127424e+00 0.0000000000000000e+00 0.0000000000000000e+00
5.0961791665196996e+00 0.0000000000000000e+00 0.0000000000000000e+00
5.0962373386036059e+00 0.0000000000000000e+00 0.0000000000000000e+00
5.0962956765942495e+00 0.0000000000000000e+00 0.0000000000000000e+00
5.0963544692466947e+00 0.0000000000000000e+00 0.0000000000000000e+00
5.0964131025938046e+00 0.0000000000000000e+00 0.0000000000000000e+00
5.0964712058860373e+00 0.0000000000000000e+00 0.0000000000000000e+00
5.0965293029681433e+00 0.0000000000000000e+00 0.0000000000000000e+00
5.0965880232055580e+00 0.0000000000000000e+00 0.0000000000000000e+00
5.0966480404683887e+00 0.0000000000000000e+00 0.0000000000000000e+00
5.0967090750967436e+00 0.0000000000000000e+00 0.0000000000000000e+00
5.0967707980311037e+00 0.0000000000000000e+00 0.0000000000000000e+00
5.0968330997402944e+00 0.0000000000000000e+00 0.0000000000000000e+00
5.0968958897755554e+00 0.0000000000000000e+00 0.0000000000000000e+00
5.0969591964298084e+00 0.0000000000000000e+00 0.0000000000000000e+00
5.0970228169837526e+00 0.0000000000000000e+00 0.0000000000000000e+00
5.0970866768847376e+00 0.0000000000000000e+00 0.0000000000000000e+00
5.0971509527996792e+00 0.0000000000000000e+00 0.0000000000000000e+00
5.0972157037586374e+00 0.0000000000000000e+00 0.0000000000000000e+00
5.0972809620202746e+00 0.0000000000000000e+00 0.0000000000000000e+00
5.0973467459006754e+00 0.0000000000000000e+00 0.0000000000000000e+00
5.0974130655114820e+00 0.0000000000000000e+00 0.0000000000000000e+00
5.0974799264714665e+00 0.0000000000000000e+00 0.0000000000000000e+00
5.0975473312918229e+00 0.0000000000000000e+00 0.0000000000000000e+00
5.0976152821799499e+00 0.0000000000000000e+00 0.0000000000000000e+00
5.0976837805401445e+00 0.0000000000000000e+00 0.0000000000000000e+00
5.0977528264797218e+00 0.0000000000000000e+00 0.0000000000000000e+00
5.0978224210127383e+00 0.0000000000000000e+00 0.0000000000000000e+00
5.0978925640468686e+00 0.0000000000000000e+00 0.0000000000000000e+00
5.0979632551861629e+00 0.0000000000000000e+00 0.0000000000000000e+00
5.0980344947831284e+00 0.0000000000000000e+00 0.0000000000000000e+00
5.0981062832882253e+00 0.0000000000000000e+00 0.0000000000000000e+00
5.0981786204367916e+00 0.0000000000000000e+00 0.0000000000000000e+00
5.0982515060838125e+00 0.0000000000000000e+00 0.0000000000000000e+00
5.0983249407133364e+00 0.0000000000000000e+00 0.0000000000000000e+00
5.0983989241651875e+00 0.0000000000000000e+00 0.0000000000000000e+00
5.0984734560772056e+00 0.0000000000000000e+00 0.0000000000000000e+00
5.0985485366992549e+00 0.0000000000000000e+00 0.0000000000000000e+00
5.0986241661926517e+00 0.0000000000000000e+00 0.0000000000000000e+00
5.0987003441886971e+00 0.0000000000000000e+00 0.0000000000000000e+00
5.0987770705700743e+00 0.0000000000000000e+00 0.0000000000000000e+00
5.0988543452483341e+00 0.0000000000000000e+00 0.0000000000000000e+00
5.0989321680303554e+00 0.0000000000000000e+00 0.0000000000000000e+00
5.0990105388449027e+00 0.0000000000000000e+00 0.0000000000000000e+00
5.0990894575442782e+00 0.0000000000000000e+00 0.0000000000000000e+00
5.0991689238569551e+00 0.0000000000000000e+00 0.0000000000000000e+00
5.0992489375673005e+00 0.0000000000000000e+00 0.0000000000000000e+00
5.0993294985142574e+00 0.0000000000000000e+00 0.0000000000000000e+00
5.0994106065124818e+00 0.0000000000000000e+00 0.0000000000000000e+00
5.0994922612424558e+00 0.0000000000000000e+00 0.0000000000000000e+00
5.0995744623967809e+00 0.0000000000000000e+00 0.0000000000000000e+00
5.0996572096078472e+00 0.0000000000000000e+00 0.0000000000000000e+00
5.0997405024809233e+00 0.0000000000000000e+00 0.0000000000000000e+00
5.0998243406943411e+00 0.0000000000000000e+00 0.0000000000000000e+00
5.0999087237965144e+00 0.0000000000000000e+00 0.0000000000000000e+00
5.0999936516172237e+00 0.0000000000000000e+00 0.0000000000000000e+00
5.1000791239357266e+00 0.0000000000000000e+00 0.0000000000000000e+00
5.1001651403008594e+00 0.0000000000000000e+00 0.0000000000000000e+00
5.1002517001851597e+00 0.0000000000000000e+00 0.0000000000000000e+00
5.1003388028159646e+00 0.0000000000000000e+00 0.0000000000000000e+00
5.1004264480733408e+00 0.0000000000000000e+00 0.0000000000000000e+00
5.1005146357240374e+00 0.0000000000000000e+00 0.0000000000000000e+00
5.1006033656841829e+00 0.0000000000000000e+00 0.0000000000000000e+00
5.1006926366022087e+00 0.0000000000000000e+00 0.0000000000000000e+00
5.1007824475957877e+00 0.0000000000000000e+00 0.0000000000000000e+00
5.1008727978271695e+00 0.0000000000000000e+00 0.0000000000000000e+00
5.1009636878172646e+00 0.0000000000000000e+00 0.0000000000000000e+00
5.1010551184024795e+00 0.0000000000000000e+00 0.0000000000000000e+00
5.1011470865585400e+00 0.0000000000000000e+00 0.0000000000000000e+00
5.1012395951408838e+00 0.0000000000000000e+00 0.0000000000000000e+00
5.1013326348415129e+00 0.0000000000000000e+00 0.0000000000000000e+00
5.1014262232497716e+00 0.0000000000000000e+00 0.0000000000000000e+00
5.1015203186482552e+00 0.0000000000000000e+00 0.0000000000000000e+00
5.1016150114353955e+00 0.0000000000000000e+00 0.0000000000000000e+00
5.1017101029896734e+00 0.0000000000000000e+00 0.0000000000000000e+00
5.1018060047055931e+00 0.0000000000000000e+00 0.0000000000000000e+00
5.1019019064215128e+00 0.0000000000000000e+00 0.0000000000000000e+00


SCALARS pressure float
LOOKUP_TABLE default
2.0899159672007752e+01
2.0697714971718927e+01
2.0496270271430099e+01
2.0294730975565244e+01
2.0093053318219361e+01
1.9891203739043636e+01
1.9689155224492616e+01
1.9486887331758339e+01
1.9284388304458616e+01
1.9081667489891473e+01
1.8878737528431056e+01
1.8675598301451011e+01
1.8472249021643979e+01
1.8268687377478670e+01
1.8064905628710800e+01
1.7860904198764274e+01
1.7656687039251448e+01
1.7452271897286948e+01
1.7247675089364886e+01
1.7042888494089514e+01
1.6837905664935583e+01
1.6632727848648884e+01
1.6427355338222750e+01
1.6221785015735239e+01
1.6016015970357113e+01
1.5810055957552914e+01
1.5603916070107166e+01
1.5397598312306211e+01
1.5191103297713747e+01
1.4984431781640984e+01
1.4777588335807609e+01
1.4570577167075673e+01
1.4363398729872818e+01
1.4156052332757131e+01
1.3948536986694481e+01
1.3740855575484174e+01
1.3533011873443961e+01
1.3325008910685341e+01
1.3116849483751757e+01
1.2908535888800646e+01
1.2700071175327807e+01
1.2491457882228660e+01
1.2282697551262373e+01
1.2073792057498812e+01
1.1864743465509665e+01
1.1655553940996507e+01
1.1446225706587933e+01
1.1236761016190723e+01
1.1027162143305537e+01
1.0817431366746341e+01
1.0607570970070682e+01
1.0397583243359721e+01
1.0187470474396010e+01
9.9772349553497079e+00
9.7668789806451812e+00
9.5564048422117995e+00
9.3458148312654288e+00
9.1351112420295681e+00
8.9242963690115538e+00
8.7133725043487562e+00
8.5023419425865043e+00
8.2912069797163230e+00
8.0799699096007931e+00
7.8686330262311586e+00
7.6571986259967462e+00
7.4456690048603136e+00
7.2340464587544639e+00
7.0223332841944099e+00
6.8105317774651812e+00
6.5986442352846222e+00
6.3866729551179384e+00
6.1746202344768966e+00
5.9624883707871925e+00
5.7502796616735177e+00
5.5379964054938133e+00
5.3256409008161700e+00
5.1132154466434949e+00
4.9007223423255866e+00
4.6881638870887024e+00
4.4755423808065720e+00
4.2628601223031826e+00
4.0501194105667642e+00
3.8373225457248812e+00
3.6244718285229558e+00
3.4115695609444123e+00
3.1986180425001165e+00
2.9856195729267316e+00
2.7725764515469336e+00
2.5594909829832879e+00
2.3463654705630965e+00
2.1332022176434857e+00
1.9200035217857236e+00
1.7067716789077203e+00
1.4935089991978983e+00
1.2802177744966603e+00
1.0669003355851716e+00
8.5355893008321027e-01
6.4019598113063347e-01
4.2681354059073318e-01
2.1341441346623294e-01
0.0000000000000000e+00


SCALARS diameter float
LOOKUP_TABLE default
1.0018920982384385e+00
1.0018706929527077e+00
1.0018505197605756e+00
1.0018323266852611e+00
1.0018151956848456e+00
1.0017980330503511e+00
1.0017802574903254e+00
1.0017614100868513e+00
1.0017423869423991e+00
1.0017243863601013e+00
1.0017066425747463e+00
1.0016888669979003e+00
1.0016709782691027e+00
1.0016523461534490e+00
1.0016328918955895e+00
1.0016132581568493e+00
1.0015938229546915e+00
1.0015762536968322e+00
1.0015587134410113e+00
1.0015407291358860e+00
1.0015225871956779e+00
1.0015043910587489e+00
1.0014857045868182e+00
1.0014664827029596e+00
1.0014470815750107e+00
1.0014281974604464e+00
1.0014095098239890e+00
1.0013907741399368e+00
1.0013720288968841e+00
1.0013533077659740e+00
1.0013349853295743e+00
1.0013166412955918e+00
1.0012982593998110e+00
1.0012795368526606e+00
1.0012606657103431e+00
1.0012417839255274e+00
1.0012228901332532e+00
1.0012039837723559e+00
1.0011850650254090e+00
1.0011661404289958e+00
1.0011473030443157e+00
1.0011284508167781e+00
1.0011095841640316e+00
1.0010907039938886e+00
1.0010718106472829e+00
1.0010529044179033e+00
1.0010339856338224e+00
1.0010150546122418e+00
1.0009961117279276e+00
1.0009771567115986e+00
1.0009581903070346e+00
1.0009392123974064e+00
1.0009202232659205e+00
1.0009012234427372e+00
1.0008822129944199e+00
1.0008631920136717e+00
1.0008441607805210e+00
1.0008251197142879e+00
1.0008060687709399e+00
1.0007870082225965e+00
1.0007679384526758e+00
1.0007488595921430e+00
1.0007297717143688e+00
1.0007106751950923e+00
1.0006915702762731e+00
1.0006724571114227e+00
1.0006533359727967e+00
1.0006342070372618e+00
1.0006150705139087e+00
1.0005959266481552e+00
1.0005767756728967e+00
1.0005576177657056e+00
1.0005384531406869e+00
1.0005192820173336e+00
1.0005001046562727e+00
1.0004809212464081e+00
1.0004617320732414e+00
1.0004425372943486e+00
1.0004233371811457e+00
1.0004041318904042e+00
1.0003849215643932e+00
1.0003657064678830e+00
1.0003464868344958e+00
1.0003272629712110e+00
1.0003080350485065e+00
1.0002888030707842e+00
1.0002695673182065e+00
1.0002503279755885e+00
1.0002310857810397e+00
1.0002118405270375e+00
1.0001925926617872e+00
1.0001733413258456e+00
1.0001540878621067e+00
1.0001348319607632e+00
1.0001155743264960e+00
1.0000963149654307e+00
1.0000770541008273e+00
1.0000577919317992e+00
1.0000385288120335e+00
1.0000192649898281e+00
9.9999999985930033e-01


SCALARS iters float
LOOKUP_TABLE default
3.0000000000000000e+00
3.0000000000000000e+00
3.0000000000000000e+00
3.0000000000000000e+00
3.0000000000000000e+00
3.0000000000000000e+00
3.0000000000000000e+00
3.0000000000000000e+00
3.0000000000000000e+00
3.0000000000000000e+00
3.0000000000000000e+00
3.0000000000000000e+00
3.0000000000000000e+00
3.0000000000000000e+00
3.0000000000000000e+00
3.0000000000000000e+00
3.0000000000000000e+00
3.0000000000000000e+00
3.0000000000000000e+00
3.0000000000000000e+00
3.0000000000000000e+00
3.0000000000000000e+00
3.0000000000000000e+00
3.0000000000000000e+00
3.0000000000000000e+00
3.0000000000000000e+00
3.0000000000000000e+00
3.0000000000000000e+00
3.0000000000000000e+00
3.0000000000000000e+00
3.0000000000000000e+00
3.0000000000000000e+00
3.0000000000000000e+00
3.0000000000000000e+00
3.0000000000000000e+00
3.0000000000000000e+00
3.0000000000000000e+00
3.0000000000000000e+00
3.0000000000000000e+00
3.0000000000000000e+00
3.0000000000000000e+00
3.0000000000000000e+00
3.0000000000000000e+00
3.0000000000000000e+00
3.0000000000000000e+00
3.0000000000000000e+00
3.0000000000000000e+00
3.0000000000000000e+00
3.0000000000000000e+00
3.0000000000000000e+00
3.0000000000000000e+00
3.0000000000000000e+00
3.0000000000000000e+00
3.0000000000000000e+00
3.0000000000000000e+00
3.0000000000000000e+00
3.0000000000000000e+00
3.0000000000000000e+00
3.0000000000000000e+00
3.0000000000000000e+00
3.0000000000000000e+00
3.0000000000000000e+00
3.0000000000000000e+00
3.0000000000000000e+00
3.0000000000000000e+00
3.0000000000000000e+00
3.0000000000000000e+00
3.0000000000000000e+00
3.0000000000000000e+00
3.0000000000000000e+00
3.0000000000000000e+00
3.0000000000000000e+00
3.0000000000000000e+00
3.0000000000000000e+00
3.0000000000000000e+00
3.0000000000000000e+00
3.0000000000000000e+00
3.0000000000000000e+00
3.0000000000000000e+00
3.0000000000000000e+00
3.0000000000000000e+00
3.0000000000000000e+00
3.0000000000000000e+00
3.0000000000000000e+00
3.0000000000000000e+00
3.0000000000000000e+00
3.0000000000000000e+00
3.0000000000000000e+00
3.0000000000000000e+00
3.0000000000000000e+00
3.0000000000000000e+00
3.0000000000000000e+00
3.0000000000000000e+00
3.0000000000000000e+00
3.0000000000000000e+00
3.0000000000000000e+00
3.0000000000000000e+00
3.0000000000000000e+00
3.0000000000000000e+00
3.0000000000000000e+00
3.0000000000000000e+00


