# vtk DataFile Version 2.0

ASCII

DATASET UNSTRUCTURED_GRID

POINTS 101 float

0.0000000000000000e+00 0.0000000000000000e+00 0.0000000000000000e+00
1.0000000000000001e-01 0.0000000000000000e+00 0.0000000000000000e+00
2.0000000000000001e-01 0.0000000000000000e+00 0.0000000000000000e+00
3.0000000000000004e-01 0.0000000000000000e+00 0.0000000000000000e+00
4.0000000000000002e-01 0.0000000000000000e+00 0.0000000000000000e+00
5.0000000000000000e-01 0.0000000000000000e+00 0.0000000000000000e+00
6.0000000000000009e-01 0.0000000000000000e+00 0.0000000000000000e+00
7.0000000000000007e-01 0.0000000000000000e+00 0.0000000000000000e+00
8.0000000000000004e-01 0.0000000000000000e+00 0.0000000000000000e+00
9.0000000000000002e-01 0.0000000000000000e+00 0.0000000000000000e+00
1.0000000000000000e+00 0.0000000000000000e+00 0.0000000000000000e+00
1.1000000000000001e+00 0.0000000000000000e+00 0.0000000000000000e+00
1.2000000000000002e+00 0.0000000000000000e+00 0.0000000000000000e+00
1.3000000000000000e+00 0.0000000000000000e+00 0.0000000000000000e+00
1.4000000000000001e+00 0.0000000000000000e+00 0.0000000000000000e+00
1.5000000000000000e+00 0.0000000000000000e+00 0.0000000000000000e+00
1.6000000000000001e+00 0.0000000000000000e+00 0.0000000000000000e+00
1.7000000000000002e+00 0.0000000000000000e+00 0.0000000000000000e+00
1.8000000000000000e+00 0.0000000000000000e+00 0.0000000000000000e+00
1.9000000000000001e+00 0.0000000000000000e+00 0.0000000000000000e+00
2.0000000000000000e+00 0.0000000000000000e+00 0.0000000000000000e+00
2.1000000000000001e+00 0.0000000000000000e+00 0.0000000000000000e+00
2.2000000000000002e+00 0.0000000000000000e+00 0.0000000000000000e+00
2.3000000000000003e+00 0.0000000000000000e+00 0.0000000000000000e+00
2.4000000000000004e+00 0.0000000000000000e+00 0.0000000000000000e+00
2.5000000000000000e+00 0.0000000000000000e+00 0.0000000000000000e+00
2.6000000000000001e+00 0.0000000000000000e+00 0.0000000000000000e+00
2.7000000000000002e+00 0.0000000000000000e+00 0.0000000000000000e+00
2.8000000000000003e+00 0.0000000000000000e+00 0.0000000000000000e+00
2.9000000000000004e+00 0.0000000000000000e+00 0.0000000000000000e+00
3.0000000000000000e+00 0.0000000000000000e+00 0.0000000000000000e+00
3.1000000000000001e+00 0.0000000000000000e+00 0.0000000000000000e+00
3.2000000000000002e+00 0.0000000000000000e+00 0.0000000000000000e+00
3.3000000000000003e+00 0.0000000000000000e+00 0.0000000000000000e+00
3.4000000000000004e+00 0.0000000000000000e+00 0.0000000000000000e+00
3.5000000000000000e+00 0.0000000000000000e+00 0.0000000000000000e+00
3.6000000000000001e+00 0.0000000000000000e+00 0.0000000000000000e+00
3.7000000000000002e+00 0.0000000000000000e+00 0.0000000000000000e+00
3.8000000000000003e+00 0.0000000000000000e+00 0.0000000000000000e+00
3.9000000000000004e+00 0.0000000000000000e+00 0.0000000000000000e+00
4.0000000000000000e+00 0.0000000000000000e+00 0.0000000000000000e+00
4.1000000000000005e+00 0.0000000000000000e+00 0.0000000000000000e+00
4.2000000000000002e+00 0.0000000000000000e+00 0.0000000000000000e+00
4.2999999999999998e+00 0.0000000000000000e+00 0.0000000000000000e+00
4.4000000000000004e+00 0.0000000000000000e+00 0.0000000000000000e+00
4.5000000000000000e+00 0.0000000000000000e+00 0.0000000000000000e+00
4.6000000000000005e+00 0.0000000000000000e+00 0.0000000000000000e+00
4.7000000000000002e+00 0.0000000000000000e+00 0.0000000000000000e+00
4.8000000000000007e+00 0.0000000000000000e+00 0.0000000000000000e+00
4.9000000000000004e+00 0.0000000000000000e+00 0.0000000000000000e+00
5.0000000000000000e+00 0.0000000000000000e+00 0.0000000000000000e+00
5.1000000000000005e+00 0.0000000000000000e+00 0.0000000000000000e+00
5.2000000000000002e+00 0.0000000000000000e+00 0.0000000000000000e+00
5.3000000000000007e+00 0.0000000000000000e+00 0.0000000000000000e+00
5.4000000000000004e+00 0.0000000000000000e+00 0.0000000000000000e+00
5.5000000000000000e+00 0.0000000000000000e+00 0.0000000000000000e+00
5.6000000000000005e+00 0.0000000000000000e+00 0.0000000000000000e+00
5.7000000000000002e+00 0.0000000000000000e+00 0.0000000000000000e+00
5.8000000000000007e+00 0.0000000000000000e+00 0.0000000000000000e+00
5.9000000000000004e+00 0.0000000000000000e+00 0.0000000000000000e+00
6.0000000000000000e+00 0.0000000000000000e+00 0.0000000000000000e+00
6.1000000000000005e+00 0.0000000000000000e+00 0.0000000000000000e+00
6.2000000000000002e+00 0.0000000000000000e+00 0.0000000000000000e+00
6.3000000000000007e+00 0.0000000000000000e+00 0.0000000000000000e+00
6.4000000000000004e+00 0.0000000000000000e+00 0.0000000000000000e+00
6.5000000000000000e+00 0.0000000000000000e+00 0.0000000000000000e+00
6.6000000000000005e+00 0.0000000000000000e+00 0.0000000000000000e+00
6.7000000000000002e+00 0.0000000000000000e+00 0.0000000000000000e+00
6.8000000000000007e+00 0.0000000000000000e+00 0.0000000000000000e+00
6.9000000000000004e+00 0.0000000000000000e+00 0.0000000000000000e+00
7.0000000000000000e+00 0.0000000000000000e+00 0.0000000000000000e+00
7.1000000000000005e+00 0.0000000000000000e+00 0.0000000000000000e+00
7.2000000000000002e+00 0.0000000000000000e+00 0.0000000000000000e+00
7.3000000000000007e+00 0.0000000000000000e+00 0.0000000000000000e+00
7.4000000000000004e+00 0.0000000000000000e+00 0.0000000000000000e+00
7.5000000000000000e+00 0.0000000000000000e+00 0.0000000000000000e+00
7.6000000000000005e+00 0.0000000000000000e+00 0.0000000000000000e+00
7.7000000000000002e+00 0.0000000000000000e+00 0.0000000000000000e+00
7.8000000000000007e+00 0.0000000000000000e+00 0.0000000000000000e+00
7.9000000000000004e+00 0.0000000000000000e+00 0.0000000000000000e+00
8.0000000000000000e+00 0.0000000000000000e+00 0.0000000000000000e+00
8.0999999999999996e+00 0.0000000000000000e+00 0.0000000000000000e+00
8.2000000000000011e+00 0.0000000000000000e+00 0.0000000000000000e+00
8.3000000000000007e+00 0.0000000000000000e+00 0.0000000000000000e+00
8.4000000000000004e+00 0.0000000000000000e+00 0.0000000000000000e+00
8.5000000000000000e+00 0.0000000000000000e+00 0.0000000000000000e+00
8.5999999999999996e+00 0.0000000000000000e+00 0.0000000000000000e+00
8.7000000000000011e+00 0.0000000000000000e+00 0.0000000000000000e+00
8.8000000000000007e+00 0.0000000000000000e+00 0.0000000000000000e+00
8.9000000000000004e+00 0.0000000000000000e+00 0.0000000000000000e+00
9.0000000000000000e+00 0.0000000000000000e+00 0.0000000000000000e+00
9.0999999999999996e+00 0.0000000000000000e+00 0.0000000000000000e+00
9.2000000000000011e+00 0.0000000000000000e+00 0.0000000000000000e+00
9.3000000000000007e+00 0.0000000000000000e+00 0.0000000000000000e+00
9.4000000000000004e+00 0.0000000000000000e+00 0.0000000000000000e+00
9.5000000000000000e+00 0.0000000000000000e+00 0.0000000000000000e+00
9.6000000000000014e+00 0.0000000000000000e+00 0.0000000000000000e+00
9.7000000000000011e+00 0.0000000000000000e+00 0.0000000000000000e+00
9.8000000000000007e+00 0.0000000000000000e+00 0.0000000000000000e+00
9.9000000000000004e+00 0.0000000000000000e+00 0.0000000000000000e+00
1.0000000000000000e+01 0.0000000000000000e+00 0.0000000000000000e+00

POINT_DATA 101

VECTORS velocity float
2.6951750375017953e+00 0.0000000000000000e+00 0.0000000000000000e+00
2.6946951863600277e+00 0.0000000000000000e+00 0.0000000000000000e+00
2.6942895659688846e+00 0.0000000000000000e+00 0.0000000000000000e+00
2.6939121156910564e+00 0.0000000000000000e+00 0.0000000000000000e+00
2.6935469704970747e+00 0.0000000000000000e+00 0.0000000000000000e+00
2.6931892972804774e+00 0.0000000000000000e+00 0.0000000000000000e+00
2.6928395761854751e+00 0.0000000000000000e+00 0.0000000000000000e+00
2.6924966082003188e+00 0.0000000000000000e+00 0.0000000000000000e+00
2.6921551003849813e+00 0.0000000000000000e+00 0.0000000000000000e+00
2.6918128852165624e+00 0.0000000000000000e+00 0.0000000000000000e+00
2.6914714657296130e+00 0.0000000000000000e+00 0.0000000000000000e+00
2.6911323799509455e+00 0.0000000000000000e+00 0.0000000000000000e+00
2.6907963960254428e+00 0.0000000000000000e+00 0.0000000000000000e+00
2.6904654048236201e+00 0.0000000000000000e+00 0.0000000000000000e+00
2.6901400587094417e+00 0.0000000000000000e+00 0.0000000000000000e+00
2.6898193646421893e+00 0.0000000000000000e+00 0.0000000000000000e+00
2.6895022973847387e+00 0.0000000000000000e+00 0.0000000000000000e+00
2.6891871820528972e+00 0.0000000000000000e+00 0.0000000000000000e+00
2.6888739797418180e+00 0.0000000000000000e+00 0.0000000000000000e+00
2.6885636271329729e+00 0.0000000000000000e+00 0.0000000000000000e+00
2.6882565109422702e+00 0.0000000000000000e+00 0.0000000000000000e+00
2.6879529607894828e+00 0.0000000000000000e+00 0.0000000000000000e+00
2.6876526966006056e+00 0.0000000000000000e+00 0.0000000000000000e+00
2.6873555179041664e+00 0.0000000000000000e+00 0.0000000000000000e+00
2.6870627586841813e+00 0.0000000000000000e+00 0.0000000000000000e+00
2.6867742463676478e+00 0.0000000000000000e+00 0.0000000000000000e+00
2.6864881757102528e+00 0.0000000000000000e+00 0.0000000000000000e+00
2.6862048300192676e+00 0.0000000000000000e+00 0.0000000000000000e+00
2.6859245687972884e+00 0.0000000000000000e+00 0.0000000000000000e+00
2.6856471139940510e+00 0.0000000000000000e+00 0.0000000000000000e+00
2.6853723443409243e+00 0.0000000000000000e+00 0.0000000000000000e+00
2.6851004876452254e+00 0.0000000000000000e+00 0.0000000000000000e+00
2.6848319562098131e+00 0.0000000000000000e+00 0.0000000000000000e+00
2.6845671321111593e+00 0.0000000000000000e+00 0.0000000000000000e+00
2.6843058364116756e+00 0.0000000000000000e+00 0.0000000000000000e+00
2.6840478565532275e+00 0.0000000000000000e+00 0.0000000000000000e+00
2.6837931081944131e+00 0.0000000000000000e+00 0.0000000000000000e+00
2.6835415458530267e+00 0.0000000000000000e+00 0.0000000000000000e+00
2.6832931840126912e+00 0.0000000000000000e+00 0.0000000000000000e+00
2.6830479147298019e+00 0.0000000000000000e+00 0.0000000000000000e+00
2.6828055230089713e+00 0.0000000000000000e+00 0.0000000000000000e+00
2.6825660925101538e+00 0.0000000000000000e+00 0.0000000000000000e+00
2.6823296649021535e+00 0.0000000000000000e+00 0.0000000000000000e+00
2.6820962485796320e+00 0.0000000000000000e+00 0.0000000000000000e+00
2.6818658424534045e+00 0.0000000000000000e+00 0.0000000000000000e+00
2.6816384429332563e+00 0.0000000000000000e+00 0.0000000000000000e+00
2.6814140448133799e+00 0.0000000000000000e+00 0.0000000000000000e+00
2.6811926434400153e+00 0.0000000000000000e+00 0.0000000000000000e+00
2.6809742345168086e+00 0.0000000000000000e+00 0.0000000000000000e+00
2.6807588139321830e+00 0.0000000000000000e+00 0.0000000000000000e+00
2.6805463773386262e+00 0.0000000000000000e+00 0.0000000000000000e+00
2.6803369204329854e+00 0.0000000000000000e+00 0.0000000000000000e+00
2.6801304392370517e+00 0.0000000000000000e+00 0.0000000000000000e+00
2.6799269299182646e+00 0.0000000000000000e+00 0.0000000000000000e+00
2.6797263887974139e+00 0.0000000000000000e+00 0.0000000000000000e+00
2.6795288120229781e+00 0.0000000000000000e+00 0.0000000000000000e+00
2.6793341954796781e+00 0.0000000000000000e+00 0.0000000000000000e+00
2.6791425355577321e+00 0.0000000000000000e+00 0.0000000000000000e+00
2.6789538292277593e+00 0.0000000000000000e+00 0.0000000000000000e+00
2.6787680731330497e+00 0.0000000000000000e+00 0.0000000000000000e+00
2.6785852638977650e+00 0.0000000000000000e+00 0.0000000000000000e+00
2.6784053982629570e+00 0.0000000000000000e+00 0.0000000000000000e+00
2.6782284732172106e+00 0.0000000000000000e+00 0.0000000000000000e+00
2.6780544856017792e+00 0.0000000000000000e+00 0.0000000000000000e+00
2.6778834324214880e+00 0.0000000000000000e+00 0.0000000000000000e+00
2.6777153108038307e+00 0.0000000000000000e+00 0.0000000000000000e+00
2.6775501179090866e+00 0.0000000000000000e+00 0.0000000000000000e+00
2.6773878510592275e+00 0.0000000000000000e+00 0.0000000000000000e+00
2.6772285076741364e+00 0.0000000000000000e+00 0.0000000000000000e+00
2.6770720851776773e+00 0.0000000000000000e+00 0.0000000000000000e+00
2.6769185810638971e+00 0.0000000000000000e+00 0.0000000000000000e+00
2.6767679929141455e+00 0.0000000000000000e+00 0.0000000000000000e+00
2.6766203184467368e+00 0.0000000000000000e+00 0.0000000000000000e+00
2.6764755556411468e+00 0.0000000000000000e+00 0.0000000000000000e+00
2.6763337025098584e+00 0.0000000000000000e+00 0.0000000000000000e+00
2.6761947571060758e+00 0.0000000000000000e+00 0.0000000000000000e+00
2.6760587176601751e+00 0.0000000000000000e+00 0.0000000000000000e+00
2.6759255821641439e+00 0.0000000000000000e+00 0.0000000000000000e+00
2.6757953489145847e+00 0.0000000000000000e+00 0.0000000000000000e+00
2.6756680169296692e+00 0.0000000000000000e+00 0.0000000000000000e+00
2.6755435842471953e+00 0.0000000000000000e+00 0.0000000000000000e+00
2.6754220492962424e+00 0.0000000000000000e+00 0.0000000000000000e+00
2.6753034107636147e+00 0.0000000000000000e+00 0.0000000000000000e+00
2.6751876683638502e+00 0.0000000000000000e+00 0.0000000000000000e+00
2.6750748204217274e+00 0.0000000000000000e+00 0.0000000000000000e+00
2.6749648644038011e+00 0.0000000000000000e+00 0.0000000000000000e+00
2.6748577996802210e+00 0.0000000000000000e+00 0.0000000000000000e+00
2.6747536248088393e+00 0.0000000000000000e+00 0.0000000000000000e+00
2.6746523405622060e+00 0.0000000000000000e+00 0.0000000000000000e+00
2.6745539463749690e+00 0.0000000000000000e+00 0.0000000000000000e+00
2.6744584425578779e+00 0.0000000000000000e+00 0.0000000000000000e+00
2.6743658262669321e+00 0.0000000000000000e+00 0.0000000000000000e+00
2.6742760974612523e+00 0.0000000000000000e+00 0.0000000000000000e+00
2.6741892567524288e+00 0.0000000000000000e+00 0.0000000000000000e+00
2.6741053015905769e+00 0.0000000000000000e+00 0.0000000000000000e+00
2.6740242430947223e+00 0.0000000000000000e+00 0.0000000000000000e+00
2.6739460366572319e+00 0.0000000000000000e+00 0.0000000000000000e+00
2.6738708318867159e+00 0.0000000000000000e+00 0.0000000000000000e+00
2.6737981654723706e+00 0.0000000000000000e+00 0.0000000000000000e+00
2.6737294058324990e+00 0.0000000000000000e+00 0.0000000000000000e+00
2.6736606461926273e+00 0.0000000000000000e+00 0.0000000000000000e+00


SCALARS pressure float
LOOKUP_TABLE default
-2.5240243847361860e+01
-2.5001315805211689e+01
-2.4762387763061518e+01
-2.4523177789188143e+01
-2.4283597254435072e+01
-2.4043616597855010e+01
-2.3803229990691754e+01
-2.3562445072675580e+01
-2.3321260751128513e+01
-2.3079662596351643e+01
-2.2837649831178595e+01
-2.2595232273797070e+01
-2.2352418315895434e+01
-2.2109214753875104e+01
-2.1865633033517710e+01
-2.1621679717681104e+01
-2.1377356954790486e+01
-2.1132665910345160e+01
-2.0887603251146281e+01
-2.0642173692620183e+01
-2.0396386857721826e+01
-2.0150250081825767e+01
-1.9903770135534121e+01
-1.9656951321589911e+01
-1.9409796961295903e+01
-1.9162315307064016e+01
-1.8914510032159995e+01
-1.8666380234087004e+01
-1.8417932204975656e+01
-1.8169171530280384e+01
-1.7920102129777405e+01
-1.7670728860018063e+01
-1.7421057574717437e+01
-1.7171094640350226e+01
-1.6920846082035961e+01
-1.6670316010202253e+01
-1.6419508686829843e+01
-1.6168428772592716e+01
-1.5917080998840861e+01
-1.5665470288690969e+01
-1.5413601106408301e+01
-1.5161477319943547e+01
-1.4909103818234284e+01
-1.4656485250699951e+01
-1.4403626204665064e+01
-1.4150531247517270e+01
-1.3897204938944562e+01
-1.3643651831259549e+01
-1.3389876478643496e+01
-1.3135883435522537e+01
-1.2881677255512365e+01
-1.2627262489581982e+01
-1.2372643687548074e+01
-1.2117825398706312e+01
-1.1862812171485150e+01
-1.1607608553666035e+01
-1.1352219091258240e+01
-1.1096648328453362e+01
-1.0840900809603600e+01
-1.0584981079572822e+01
-1.0328893680782118e+01
-1.0072643154560101e+01
-9.8162340419784915e+00
-9.5596708843431255e+00
-9.3029582213089892e+00
-9.0461005920495161e+00
-8.7891025351121286e+00
-8.5319685882130898e+00
-8.2747032886637211e+00
-8.0173111731496185e+00
-7.7597967775382477e+00
-7.5021646372358131e+00
-7.2444192873921969e+00
-6.9865652632605704e+00
-6.7286071003035595e+00
-6.4705493336267237e+00
-6.2123964978366288e+00
-5.9541531272539547e+00
-5.6958237550248771e+00
-5.4374129148313441e+00
-5.1789251433285122e+00
-4.9203649732157002e+00
-4.6617369384519085e+00
-4.4030455733746363e+00
-4.1442954149554376e+00
-3.8854909954886465e+00
-3.6266368455886564e+00
-3.3677375015823761e+00
-3.1087974952469994e+00
-2.8498213680288842e+00
-2.5908136554575156e+00
-2.3317788957581413e+00
-2.0727216191122171e+00
-1.8136463612954024e+00
-1.5545576708298743e+00
-1.2954600563394181e+00
-1.0363581470377456e+00
-7.7725620330822409e-01
-5.1815958625876224e-01
-2.5907049326937193e-01
0.0000000000000000e+00


SCALARS diameter float
LOOKUP_TABLE default
9.9772363316297763e-01
9.9774997988126957e-01
9.9777312849351796e-01
9.9779502932607111e-01
9.9781612951045207e-01
9.9783729010390443e-01
9.9785669996096726e-01
9.9787525545322986e-01
9.9789515484479463e-01
9.9791711318501974e-01
9.9793982644657508e-01
9.9796261153567656e-01
9.9798542506086196e-01
9.9800766710727928e-01
9.9802901836204549e-01
9.9805027631169330e-01
9.9807180660087325e-01
9.9809400994856678e-01
9.9811622233612696e-01
9.9813837499551405e-01
9.9816064742245669e-01
9.9818306302173887e-01
9.9820558215962241e-01
9.9822846793753683e-01
9.9825060785792197e-01
9.9827186165424187e-01
9.9829418031065620e-01
9.9831651090300821e-01
9.9833886426138474e-01
9.9836127086329918e-01
9.9838403128973352e-01
9.9840681442240864e-01
9.9842959700973843e-01
9.9845211606962880e-01
9.9847456551447911e-01
9.9849703519321020e-01
9.9851952634703423e-01
9.9854203993092094e-01
9.9856457527659948e-01
9.9858714347888911e-01
9.9860989121871868e-01
9.9863265552207425e-01
9.9865543880814045e-01
9.9867824085860735e-01
9.9870106157455685e-01
9.9872390086510587e-01
9.9874675846859606e-01
9.9876963416750897e-01
9.9879252751828274e-01
9.9881543833718822e-01
9.9883836633271572e-01
9.9886131130520528e-01
9.9888427291633575e-01
9.9890725072451725e-01
9.9893024443799350e-01
9.9895325377881983e-01
9.9897627870582029e-01
9.9899931898359606e-01
9.9902237386581072e-01
9.9904544316094379e-01
9.9906852659399759e-01
9.9909162381698513e-01
9.9911473455049893e-01
9.9913785859653914e-01
9.9916099568799843e-01
9.9918414545391387e-01
9.9920730764526511e-01
9.9923048192154429e-01
9.9925366793465842e-01
9.9927686539981908e-01
9.9930007402371013e-01
9.9932329353286209e-01
9.9934652363204091e-01
9.9936976403268740e-01
9.9939301432342098e-01
9.9941627430184254e-01
9.9943954358303488e-01
9.9946282177539403e-01
9.9948610889131961e-01
9.9950940383654352e-01
9.9953270712871867e-01
9.9955601823064577e-01
9.9957933690052414e-01
9.9960266240269180e-01
9.9962599431647325e-01
9.9964933364822317e-01
9.9967267940748850e-01
9.9969603165291154e-01
9.9971938908211300e-01
9.9974275164657422e-01
9.9976611868344600e-01
9.9978949043218757e-01
9.9981286763205979e-01
9.9983624802671034e-01
9.9985963232443464e-01
9.9988302005845864e-01
9.9990641094211896e-01
9.9992980467135650e-01
9.9995320069101323e-01
9.9997659877623069e-01
1.0000000002289966e+00


SCALARS iters float
LOOKUP_TABLE default
3.0000000000000000e+00
3.0000000000000000e+00
3.0000000000000000e+00
3.0000000000000000e+00
3.0000000000000000e+00
3.0000000000000000e+00
3.0000000000000000e+00
3.0000000000000000e+00
3.0000000000000000e+00
3.0000000000000000e+00
3.0000000000000000e+00
3.0000000000000000e+00
3.0000000000000000e+00
3.0000000000000000e+00
3.0000000000000000e+00
3.0000000000000000e+00
3.0000000000000000e+00
3.0000000000000000e+00
3.0000000000000000e+00
3.0000000000000000e+00
3.0000000000000000e+00
3.0000000000000000e+00
3.0000000000000000e+00
3.0000000000000000e+00
3.0000000000000000e+00
3.0000000000000000e+00
3.0000000000000000e+00
3.0000000000000000e+00
3.0000000000000000e+00
3.0000000000000000e+00
3.0000000000000000e+00
3.0000000000000000e+00
3.0000000000000000e+00
3.0000000000000000e+00
3.0000000000000000e+00
3.0000000000000000e+00
3.0000000000000000e+00
3.0000000000000000e+00
3.0000000000000000e+00
3.0000000000000000e+00
3.0000000000000000e+00
3.0000000000000000e+00
3.0000000000000000e+00
3.0000000000000000e+00
3.0000000000000000e+00
3.0000000000000000e+00
3.0000000000000000e+00
3.0000000000000000e+00
3.0000000000000000e+00
3.0000000000000000e+00
3.0000000000000000e+00
3.0000000000000000e+00
3.0000000000000000e+00
3.0000000000000000e+00
3.0000000000000000e+00
3.0000000000000000e+00
3.0000000000000000e+00
3.0000000000000000e+00
3.0000000000000000e+00
3.0000000000000000e+00
3.0000000000000000e+00
3.0000000000000000e+00
3.0000000000000000e+00
3.0000000000000000e+00
3.0000000000000000e+00
3.0000000000000000e+00
3.0000000000000000e+00
3.0000000000000000e+00
3.0000000000000000e+00
3.0000000000000000e+00
3.0000000000000000e+00
3.0000000000000000e+00
3.0000000000000000e+00
3.0000000000000000e+00
3.0000000000000000e+00
3.0000000000000000e+00
3.0000000000000000e+00
3.0000000000000000e+00
3.0000000000000000e+00
3.0000000000000000e+00
3.0000000000000000e+00
3.0000000000000000e+00
3.0000000000000000e+00
3.0000000000000000e+00
3.0000000000000000e+00
3.0000000000000000e+00
3.0000000000000000e+00
3.0000000000000000e+00
3.0000000000000000e+00
3.0000000000000000e+00
3.0000000000000000e+00
3.0000000000000000e+00
3.0000000000000000e+00
3.0000000000000000e+00
3.0000000000000000e+00
3.0000000000000000e+00
3.0000000000000000e+00
3.0000000000000000e+00
3.0000000000000000e+00
3.0000000000000000e+00
3.0000000000000000e+00


