# vtk DataFile Version 2.0

ASCII

DATASET UNSTRUCTURED_GRID

POINTS 101 float

0.0000000000000000e+00 0.0000000000000000e+00 0.0000000000000000e+00
1.0000000000000001e-01 0.0000000000000000e+00 0.0000000000000000e+00
2.0000000000000001e-01 0.0000000000000000e+00 0.0000000000000000e+00
3.0000000000000004e-01 0.0000000000000000e+00 0.0000000000000000e+00
4.0000000000000002e-01 0.0000000000000000e+00 0.0000000000000000e+00
5.0000000000000000e-01 0.0000000000000000e+00 0.0000000000000000e+00
6.0000000000000009e-01 0.0000000000000000e+00 0.0000000000000000e+00
7.0000000000000007e-01 0.0000000000000000e+00 0.0000000000000000e+00
8.0000000000000004e-01 0.0000000000000000e+00 0.0000000000000000e+00
9.0000000000000002e-01 0.0000000000000000e+00 0.0000000000000000e+00
1.0000000000000000e+00 0.0000000000000000e+00 0.0000000000000000e+00
1.1000000000000001e+00 0.0000000000000000e+00 0.0000000000000000e+00
1.2000000000000002e+00 0.0000000000000000e+00 0.0000000000000000e+00
1.3000000000000000e+00 0.0000000000000000e+00 0.0000000000000000e+00
1.4000000000000001e+00 0.0000000000000000e+00 0.0000000000000000e+00
1.5000000000000000e+00 0.0000000000000000e+00 0.0000000000000000e+00
1.6000000000000001e+00 0.0000000000000000e+00 0.0000000000000000e+00
1.7000000000000002e+00 0.0000000000000000e+00 0.0000000000000000e+00
1.8000000000000000e+00 0.0000000000000000e+00 0.0000000000000000e+00
1.9000000000000001e+00 0.0000000000000000e+00 0.0000000000000000e+00
2.0000000000000000e+00 0.0000000000000000e+00 0.0000000000000000e+00
2.1000000000000001e+00 0.0000000000000000e+00 0.0000000000000000e+00
2.2000000000000002e+00 0.0000000000000000e+00 0.0000000000000000e+00
2.3000000000000003e+00 0.0000000000000000e+00 0.0000000000000000e+00
2.4000000000000004e+00 0.0000000000000000e+00 0.0000000000000000e+00
2.5000000000000000e+00 0.0000000000000000e+00 0.0000000000000000e+00
2.6000000000000001e+00 0.0000000000000000e+00 0.0000000000000000e+00
2.7000000000000002e+00 0.0000000000000000e+00 0.0000000000000000e+00
2.8000000000000003e+00 0.0000000000000000e+00 0.0000000000000000e+00
2.9000000000000004e+00 0.0000000000000000e+00 0.0000000000000000e+00
3.0000000000000000e+00 0.0000000000000000e+00 0.0000000000000000e+00
3.1000000000000001e+00 0.0000000000000000e+00 0.0000000000000000e+00
3.2000000000000002e+00 0.0000000000000000e+00 0.0000000000000000e+00
3.3000000000000003e+00 0.0000000000000000e+00 0.0000000000000000e+00
3.4000000000000004e+00 0.0000000000000000e+00 0.0000000000000000e+00
3.5000000000000000e+00 0.0000000000000000e+00 0.0000000000000000e+00
3.6000000000000001e+00 0.0000000000000000e+00 0.0000000000000000e+00
3.7000000000000002e+00 0.0000000000000000e+00 0.0000000000000000e+00
3.8000000000000003e+00 0.0000000000000000e+00 0.0000000000000000e+00
3.9000000000000004e+00 0.0000000000000000e+00 0.0000000000000000e+00
4.0000000000000000e+00 0.0000000000000000e+00 0.0000000000000000e+00
4.1000000000000005e+00 0.0000000000000000e+00 0.0000000000000000e+00
4.2000000000000002e+00 0.0000000000000000e+00 0.0000000000000000e+00
4.2999999999999998e+00 0.0000000000000000e+00 0.0000000000000000e+00
4.4000000000000004e+00 0.0000000000000000e+00 0.0000000000000000e+00
4.5000000000000000e+00 0.0000000000000000e+00 0.0000000000000000e+00
4.6000000000000005e+00 0.0000000000000000e+00 0.0000000000000000e+00
4.7000000000000002e+00 0.0000000000000000e+00 0.0000000000000000e+00
4.8000000000000007e+00 0.0000000000000000e+00 0.0000000000000000e+00
4.9000000000000004e+00 0.0000000000000000e+00 0.0000000000000000e+00
5.0000000000000000e+00 0.0000000000000000e+00 0.0000000000000000e+00
5.1000000000000005e+00 0.0000000000000000e+00 0.0000000000000000e+00
5.2000000000000002e+00 0.0000000000000000e+00 0.0000000000000000e+00
5.3000000000000007e+00 0.0000000000000000e+00 0.0000000000000000e+00
5.4000000000000004e+00 0.0000000000000000e+00 0.0000000000000000e+00
5.5000000000000000e+00 0.0000000000000000e+00 0.0000000000000000e+00
5.6000000000000005e+00 0.0000000000000000e+00 0.0000000000000000e+00
5.7000000000000002e+00 0.0000000000000000e+00 0.0000000000000000e+00
5.8000000000000007e+00 0.0000000000000000e+00 0.0000000000000000e+00
5.9000000000000004e+00 0.0000000000000000e+00 0.0000000000000000e+00
6.0000000000000000e+00 0.0000000000000000e+00 0.0000000000000000e+00
6.1000000000000005e+00 0.0000000000000000e+00 0.0000000000000000e+00
6.2000000000000002e+00 0.0000000000000000e+00 0.0000000000000000e+00
6.3000000000000007e+00 0.0000000000000000e+00 0.0000000000000000e+00
6.4000000000000004e+00 0.0000000000000000e+00 0.0000000000000000e+00
6.5000000000000000e+00 0.0000000000000000e+00 0.0000000000000000e+00
6.6000000000000005e+00 0.0000000000000000e+00 0.0000000000000000e+00
6.7000000000000002e+00 0.0000000000000000e+00 0.0000000000000000e+00
6.8000000000000007e+00 0.0000000000000000e+00 0.0000000000000000e+00
6.9000000000000004e+00 0.0000000000000000e+00 0.0000000000000000e+00
7.0000000000000000e+00 0.0000000000000000e+00 0.0000000000000000e+00
7.1000000000000005e+00 0.0000000000000000e+00 0.0000000000000000e+00
7.2000000000000002e+00 0.0000000000000000e+00 0.0000000000000000e+00
7.3000000000000007e+00 0.0000000000000000e+00 0.0000000000000000e+00
7.4000000000000004e+00 0.0000000000000000e+00 0.0000000000000000e+00
7.5000000000000000e+00 0.0000000000000000e+00 0.0000000000000000e+00
7.6000000000000005e+00 0.0000000000000000e+00 0.0000000000000000e+00
7.7000000000000002e+00 0.0000000000000000e+00 0.0000000000000000e+00
7.8000000000000007e+00 0.0000000000000000e+00 0.0000000000000000e+00
7.9000000000000004e+00 0.0000000000000000e+00 0.0000000000000000e+00
8.0000000000000000e+00 0.0000000000000000e+00 0.0000000000000000e+00
8.0999999999999996e+00 0.0000000000000000e+00 0.0000000000000000e+00
8.2000000000000011e+00 0.0000000000000000e+00 0.0000000000000000e+00
8.3000000000000007e+00 0.0000000000000000e+00 0.0000000000000000e+00
8.4000000000000004e+00 0.0000000000000000e+00 0.0000000000000000e+00
8.5000000000000000e+00 0.0000000000000000e+00 0.0000000000000000e+00
8.5999999999999996e+00 0.0000000000000000e+00 0.0000000000000000e+00
8.7000000000000011e+00 0.0000000000000000e+00 0.0000000000000000e+00
8.8000000000000007e+00 0.0000000000000000e+00 0.0000000000000000e+00
8.9000000000000004e+00 0.0000000000000000e+00 0.0000000000000000e+00
9.0000000000000000e+00 0.0000000000000000e+00 0.0000000000000000e+00
9.0999999999999996e+00 0.0000000000000000e+00 0.0000000000000000e+00
9.2000000000000011e+00 0.0000000000000000e+00 0.0000000000000000e+00
9.3000000000000007e+00 0.0000000000000000e+00 0.0000000000000000e+00
9.4000000000000004e+00 0.0000000000000000e+00 0.0000000000000000e+00
9.5000000000000000e+00 0.0000000000000000e+00 0.0000000000000000e+00
9.6000000000000014e+00 0.0000000000000000e+00 0.0000000000000000e+00
9.7000000000000011e+00 0.0000000000000000e+00 0.0000000000000000e+00
9.8000000000000007e+00 0.0000000000000000e+00 0.0000000000000000e+00
9.9000000000000004e+00 0.0000000000000000e+00 0.0000000000000000e+00
1.0000000000000000e+01 0.0000000000000000e+00 0.0000000000000000e+00

POINT_DATA 101

VECTORS velocity float
4.5986259725970946e+00 0.0000000000000000e+00 0.0000000000000000e+00
4.5983909485062222e+00 0.0000000000000000e+00 0.0000000000000000e+00
4.5981496042372845e+00 0.0000000000000000e+00 0.0000000000000000e+00
4.5979040447368460e+00 0.0000000000000000e+00 0.0000000000000000e+00
4.5976571845879803e+00 0.0000000000000000e+00 0.0000000000000000e+00
4.5974116840043280e+00 0.0000000000000000e+00 0.0000000000000000e+00
4.5971704465652961e+00 0.0000000000000000e+00 0.0000000000000000e+00
4.5969352277759992e+00 0.0000000000000000e+00 0.0000000000000000e+00
4.5967028032464103e+00 0.0000000000000000e+00 0.0000000000000000e+00
4.5964701791282767e+00 0.0000000000000000e+00 0.0000000000000000e+00
4.5962385834363753e+00 0.0000000000000000e+00 0.0000000000000000e+00
4.5960090510229508e+00 0.0000000000000000e+00 0.0000000000000000e+00
4.5957823289799515e+00 0.0000000000000000e+00 0.0000000000000000e+00
4.5955603079973946e+00 0.0000000000000000e+00 0.0000000000000000e+00
4.5953434328891687e+00 0.0000000000000000e+00 0.0000000000000000e+00
4.5951312839693434e+00 0.0000000000000000e+00 0.0000000000000000e+00
4.5949213583961557e+00 0.0000000000000000e+00 0.0000000000000000e+00
4.5947113808137665e+00 0.0000000000000000e+00 0.0000000000000000e+00
4.5945028590439678e+00 0.0000000000000000e+00 0.0000000000000000e+00
4.5942967753470141e+00 0.0000000000000000e+00 0.0000000000000000e+00
4.5940933699937387e+00 0.0000000000000000e+00 0.0000000000000000e+00
4.5938934376949332e+00 0.0000000000000000e+00 0.0000000000000000e+00
4.5936978206363177e+00 0.0000000000000000e+00 0.0000000000000000e+00
4.5935068840485132e+00 0.0000000000000000e+00 0.0000000000000000e+00
4.5933187484119316e+00 0.0000000000000000e+00 0.0000000000000000e+00
4.5931323892661622e+00 0.0000000000000000e+00 0.0000000000000000e+00
4.5929488440108512e+00 0.0000000000000000e+00 0.0000000000000000e+00
4.5927681492652033e+00 0.0000000000000000e+00 0.0000000000000000e+00
4.5925904371822135e+00 0.0000000000000000e+00 0.0000000000000000e+00
4.5924151793323027e+00 0.0000000000000000e+00 0.0000000000000000e+00
4.5922420198167897e+00 0.0000000000000000e+00 0.0000000000000000e+00
4.5920713602564014e+00 0.0000000000000000e+00 0.0000000000000000e+00
4.5919036968582914e+00 0.0000000000000000e+00 0.0000000000000000e+00
4.5917395760175586e+00 0.0000000000000000e+00 0.0000000000000000e+00
4.5915787948206388e+00 0.0000000000000000e+00 0.0000000000000000e+00
4.5914210956732813e+00 0.0000000000000000e+00 0.0000000000000000e+00
4.5912663955561541e+00 0.0000000000000000e+00 0.0000000000000000e+00
4.5911146111151107e+00 0.0000000000000000e+00 0.0000000000000000e+00
4.5909658053980307e+00 0.0000000000000000e+00 0.0000000000000000e+00
4.5908196915076589e+00 0.0000000000000000e+00 0.0000000000000000e+00
4.5906760649991414e+00 0.0000000000000000e+00 0.0000000000000000e+00
4.5905351885886150e+00 0.0000000000000000e+00 0.0000000000000000e+00
4.5903971457902912e+00 0.0000000000000000e+00 0.0000000000000000e+00
4.5902619778307949e+00 0.0000000000000000e+00 0.0000000000000000e+00
4.5901297051868921e+00 0.0000000000000000e+00 0.0000000000000000e+00
4.5900003377767451e+00 0.0000000000000000e+00 0.0000000000000000e+00
4.5898738802584038e+00 0.0000000000000000e+00 0.0000000000000000e+00
4.5897503343403603e+00 0.0000000000000000e+00 0.0000000000000000e+00
4.5896297011588025e+00 0.0000000000000000e+00 0.0000000000000000e+00
4.5895119811028495e+00 0.0000000000000000e+00 0.0000000000000000e+00
4.5893971735640449e+00 0.0000000000000000e+00 0.0000000000000000e+00
4.5892852785451721e+00 0.0000000000000000e+00 0.0000000000000000e+00
4.5891762955124697e+00 0.0000000000000000e+00 0.0000000000000000e+00
4.5890702236821435e+00 0.0000000000000000e+00 0.0000000000000000e+00
4.5889670627524595e+00 0.0000000000000000e+00 0.0000000000000000e+00
4.5888668125752270e+00 0.0000000000000000e+00 0.0000000000000000e+00
4.5887694722098233e+00 0.0000000000000000e+00 0.0000000000000000e+00
4.5886750410125403e+00 0.0000000000000000e+00 0.0000000000000000e+00
4.5885835190541879e+00 0.0000000000000000e+00 0.0000000000000000e+00
4.5884949058036728e+00 0.0000000000000000e+00 0.0000000000000000e+00
4.5884092005501564e+00 0.0000000000000000e+00 0.0000000000000000e+00
4.5883264029354605e+00 0.0000000000000000e+00 0.0000000000000000e+00
4.5882465125747611e+00 0.0000000000000000e+00 0.0000000000000000e+00
4.5881695287109077e+00 0.0000000000000000e+00 0.0000000000000000e+00
4.5880954507994245e+00 0.0000000000000000e+00 0.0000000000000000e+00
4.5880242783617184e+00 0.0000000000000000e+00 0.0000000000000000e+00
4.5879560108176651e+00 0.0000000000000000e+00 0.0000000000000000e+00
4.5878906477304460e+00 0.0000000000000000e+00 0.0000000000000000e+00
4.5878281886223240e+00 0.0000000000000000e+00 0.0000000000000000e+00
4.5877686329010814e+00 0.0000000000000000e+00 0.0000000000000000e+00
4.5877119800140624e+00 0.0000000000000000e+00 0.0000000000000000e+00
4.5876582294360215e+00 0.0000000000000000e+00 0.0000000000000000e+00
4.5876073806356654e+00 0.0000000000000000e+00 0.0000000000000000e+00
4.5875594330543779e+00 0.0000000000000000e+00 0.0000000000000000e+00
4.5875143861389551e+00 0.0000000000000000e+00 0.0000000000000000e+00
4.5874722392460416e+00 0.0000000000000000e+00 0.0000000000000000e+00
4.5874329918976828e+00 0.0000000000000000e+00 0.0000000000000000e+00
4.5873966433966009e+00 0.0000000000000000e+00 0.0000000000000000e+00
4.5873631932068086e+00 0.0000000000000000e+00 0.0000000000000000e+00
4.5873326410813791e+00 0.0000000000000000e+00 0.0000000000000000e+00
4.5873049862491353e+00 0.0000000000000000e+00 0.0000000000000000e+00
4.5872802280688187e+00 0.0000000000000000e+00 0.0000000000000000e+00
4.5872583658499551e+00 0.0000000000000000e+00 0.0000000000000000e+00
4.5872393993910796e+00 0.0000000000000000e+00 0.0000000000000000e+00
4.5872233279796735e+00 0.0000000000000000e+00 0.0000000000000000e+00
4.5872101504316731e+00 0.0000000000000000e+00 0.0000000000000000e+00
4.5871998662720186e+00 0.0000000000000000e+00 0.0000000000000000e+00
4.5871924750694646e+00 0.0000000000000000e+00 0.0000000000000000e+00
4.5871879763352092e+00 0.0000000000000000e+00 0.0000000000000000e+00
4.5871863693484443e+00 0.0000000000000000e+00 0.0000000000000000e+00
4.5871876537666054e+00 0.0000000000000000e+00 0.0000000000000000e+00
4.5871918299046781e+00 0.0000000000000000e+00 0.0000000000000000e+00
4.5871988939259536e+00 0.0000000000000000e+00 0.0000000000000000e+00
4.5872088530341122e+00 0.0000000000000000e+00 0.0000000000000000e+00
4.5872216878556822e+00 0.0000000000000000e+00 0.0000000000000000e+00
4.5872374419214550e+00 0.0000000000000000e+00 0.0000000000000000e+00
4.5872560054791736e+00 0.0000000000000000e+00 0.0000000000000000e+00
4.5872776473983858e+00 0.0000000000000000e+00 0.0000000000000000e+00
4.5873017012703707e+00 0.0000000000000000e+00 0.0000000000000000e+00
4.5873298092383905e+00 0.0000000000000000e+00 0.0000000000000000e+00
4.5873579172064094e+00 0.0000000000000000e+00 0.0000000000000000e+00


SCALARS pressure float
LOOKUP_TABLE default
8.3677014681910045e+00
8.2870313702629925e+00
8.2063612723349824e+00
8.1256552309614811e+00
8.0449016285071675e+00
7.9640885445005587e+00
7.8832045287505323e+00
7.8022369473384519e+00
7.7211776789311086e+00
7.6400389347229956e+00
7.5588344668452132e+00
7.4775615560338595e+00
7.3962161118021665e+00
7.3147949293901595e+00
7.2332903565003557e+00
7.1517000425967536e+00
7.0700258353536816e+00
6.9882787536626418e+00
6.9064701555358843e+00
6.8245960164608652e+00
6.7426521327064561e+00
6.6606373478199163e+00
6.5785488963732544e+00
6.4963836447299741e+00
6.4141402772708629e+00
6.3318262107245937e+00
6.2494467001528546e+00
6.1669990786735962e+00
6.0844834044522171e+00
6.0018996682237109e+00
5.9192504951487654e+00
5.8365381769573599e+00
5.7537619431683904e+00
5.6709201939480121e+00
5.5880109877787385e+00
5.5050353238122911e+00
5.4219948345444440e+00
5.3388905534914537e+00
5.2557234369246668e+00
5.1724938554124300e+00
5.0892034796694210e+00
5.0058537891176353e+00
4.9224444076538072e+00
4.8389754229633786e+00
4.7554471553137247e+00
4.6718600396609782e+00
4.5882145688583886e+00
4.5045112648013852e+00
4.4207506654225392e+00
4.3369333134276271e+00
4.2530597554700984e+00
4.1691305430129511e+00
4.0851462260301021e+00
4.0011073568142042e+00
3.9170144893260268e+00
3.8328681761584469e+00
3.7486689694510189e+00
3.6644174247287986e+00
3.5801140970766463e+00
3.4957595390399501e+00
3.4113543055410269e+00
3.3268989528590107e+00
3.2423940363120614e+00
3.1578401114670713e+00
3.0732377356898413e+00
2.9885874660166878e+00
2.9038898594570863e+00
2.8191454736792791e+00
2.7343548661314010e+00
2.6495185946520157e+00
2.5646372178324413e+00
2.4797112944453326e+00
2.3947413834046087e+00
2.3097280438880348e+00
2.2246718354556183e+00
2.1395733179150609e+00
2.0544330516810949e+00
1.9692515968198916e+00
1.8840295144035621e+00
1.7987673651952856e+00
1.7134657090189236e+00
1.6281251077582990e+00
1.5427461232080073e+00
1.4573293175312358e+00
1.3718752513136534e+00
1.2863844870757029e+00
1.2008575893479552e+00
1.1152951202046961e+00
1.0296976416129027e+00
9.4406571607749723e-01
8.5839990720709280e-01
7.7270077714356733e-01
6.8696888526162381e-01
6.0120480694636236e-01
5.1540907714813800e-01
4.2958232841193306e-01
3.4372496314451734e-01
2.5783794518916386e-01
1.7192085210498320e-01
8.5976683509224536e-02
0.0000000000000000e+00


SCALARS diameter float
LOOKUP_TABLE default
1.0007572991397955e+00
1.0007488513287550e+00
1.0007405292706724e+00
1.0007334742090157e+00
1.0007269059411987e+00
1.0007203039113910e+00
1.0007130037331513e+00
1.0007045928280518e+00
1.0006960677719199e+00
1.0006890147197169e+00
1.0006823749889369e+00
1.0006757054425990e+00
1.0006689734878853e+00
1.0006616971936018e+00
1.0006535949552460e+00
1.0006452670167469e+00
1.0006369973594305e+00
1.0006300802114554e+00
1.0006233405614611e+00
1.0006164843212491e+00
1.0006095805223556e+00
1.0006025389727993e+00
1.0005949713124802e+00
1.0005869563887115e+00
1.0005788545245926e+00
1.0005715204001122e+00
1.0005640528037012e+00
1.0005565274962729e+00
1.0005489977440740e+00
1.0005414926614697e+00
1.0005343390263379e+00
1.0005271701369713e+00
1.0005199667784974e+00
1.0005124688706259e+00
1.0005048498650793e+00
1.0004972242093850e+00
1.0004895911141667e+00
1.0004819504321323e+00
1.0004743020557600e+00
1.0004666585146793e+00
1.0004591959815399e+00
1.0004517225611504e+00
1.0004442392187067e+00
1.0004367467266482e+00
1.0004292453999599e+00
1.0004217355035185e+00
1.0004142172738715e+00
1.0004066909709992e+00
1.0003991567836150e+00
1.0003916145416141e+00
1.0003840647813209e+00
1.0003765074586126e+00
1.0003689427175348e+00
1.0003613709106536e+00
1.0003537920803727e+00
1.0003462062556776e+00
1.0003386136726609e+00
1.0003310147054152e+00
1.0003234091412319e+00
1.0003157971833072e+00
1.0003081790934290e+00
1.0003005549659312e+00
1.0002929248519166e+00
1.0002852890121050e+00
1.0002776476218480e+00
1.0002700007487073e+00
1.0002623485910802e+00
1.0002546912487471e+00
1.0002470288412968e+00
1.0002393615370033e+00
1.0002316894925793e+00
1.0002240128242637e+00
1.0002163316806916e+00
1.0002086461923947e+00
1.0002009565157837e+00
1.0001932627882859e+00
1.0001855651718468e+00
1.0001778637507137e+00
1.0001701587814005e+00
1.0001624501734823e+00
1.0001547381734925e+00
1.0001470229782257e+00
1.0001393046914213e+00
1.0001315834266884e+00
1.0001238591609074e+00
1.0001161324151642e+00
1.0001084032000904e+00
1.0001006715715408e+00
1.0000929376723793e+00
1.0000852015787256e+00
1.0000774635033247e+00
1.0000697231156510e+00
1.0000619813898615e+00
1.0000542375963033e+00
1.0000464925546888e+00
1.0000387462318165e+00
1.0000309987410818e+00
1.0000232502215607e+00
1.0000155008261782e+00
1.0000077507869498e+00
1.0000000000093754e+00


SCALARS iters float
LOOKUP_TABLE default
3.0000000000000000e+00
3.0000000000000000e+00
3.0000000000000000e+00
3.0000000000000000e+00
3.0000000000000000e+00
3.0000000000000000e+00
3.0000000000000000e+00
3.0000000000000000e+00
3.0000000000000000e+00
3.0000000000000000e+00
3.0000000000000000e+00
3.0000000000000000e+00
3.0000000000000000e+00
3.0000000000000000e+00
3.0000000000000000e+00
3.0000000000000000e+00
3.0000000000000000e+00
3.0000000000000000e+00
3.0000000000000000e+00
3.0000000000000000e+00
3.0000000000000000e+00
3.0000000000000000e+00
3.0000000000000000e+00
3.0000000000000000e+00
3.0000000000000000e+00
3.0000000000000000e+00
3.0000000000000000e+00
3.0000000000000000e+00
3.0000000000000000e+00
3.0000000000000000e+00
3.0000000000000000e+00
3.0000000000000000e+00
3.0000000000000000e+00
3.0000000000000000e+00
3.0000000000000000e+00
3.0000000000000000e+00
3.0000000000000000e+00
3.0000000000000000e+00
3.0000000000000000e+00
3.0000000000000000e+00
3.0000000000000000e+00
3.0000000000000000e+00
3.0000000000000000e+00
3.0000000000000000e+00
3.0000000000000000e+00
3.0000000000000000e+00
3.0000000000000000e+00
3.0000000000000000e+00
3.0000000000000000e+00
3.0000000000000000e+00
3.0000000000000000e+00
3.0000000000000000e+00
3.0000000000000000e+00
3.0000000000000000e+00
3.0000000000000000e+00
3.0000000000000000e+00
3.0000000000000000e+00
3.0000000000000000e+00
3.0000000000000000e+00
3.0000000000000000e+00
3.0000000000000000e+00
3.0000000000000000e+00
3.0000000000000000e+00
3.0000000000000000e+00
3.0000000000000000e+00
3.0000000000000000e+00
3.0000000000000000e+00
3.0000000000000000e+00
3.0000000000000000e+00
3.0000000000000000e+00
3.0000000000000000e+00
3.0000000000000000e+00
3.0000000000000000e+00
3.0000000000000000e+00
3.0000000000000000e+00
3.0000000000000000e+00
3.0000000000000000e+00
3.0000000000000000e+00
3.0000000000000000e+00
3.0000000000000000e+00
3.0000000000000000e+00
3.0000000000000000e+00
3.0000000000000000e+00
3.0000000000000000e+00
3.0000000000000000e+00
3.0000000000000000e+00
3.0000000000000000e+00
3.0000000000000000e+00
3.0000000000000000e+00
3.0000000000000000e+00
3.0000000000000000e+00
3.0000000000000000e+00
3.0000000000000000e+00
3.0000000000000000e+00
3.0000000000000000e+00
3.0000000000000000e+00
3.0000000000000000e+00
3.0000000000000000e+00
3.0000000000000000e+00
3.0000000000000000e+00
3.0000000000000000e+00


