# vtk DataFile Version 2.0

ASCII

DATASET UNSTRUCTURED_GRID

POINTS 101 float

0.0000000000000000e+00 0.0000000000000000e+00 0.0000000000000000e+00
1.0000000000000001e-01 0.0000000000000000e+00 0.0000000000000000e+00
2.0000000000000001e-01 0.0000000000000000e+00 0.0000000000000000e+00
3.0000000000000004e-01 0.0000000000000000e+00 0.0000000000000000e+00
4.0000000000000002e-01 0.0000000000000000e+00 0.0000000000000000e+00
5.0000000000000000e-01 0.0000000000000000e+00 0.0000000000000000e+00
6.0000000000000009e-01 0.0000000000000000e+00 0.0000000000000000e+00
7.0000000000000007e-01 0.0000000000000000e+00 0.0000000000000000e+00
8.0000000000000004e-01 0.0000000000000000e+00 0.0000000000000000e+00
9.0000000000000002e-01 0.0000000000000000e+00 0.0000000000000000e+00
1.0000000000000000e+00 0.0000000000000000e+00 0.0000000000000000e+00
1.1000000000000001e+00 0.0000000000000000e+00 0.0000000000000000e+00
1.2000000000000002e+00 0.0000000000000000e+00 0.0000000000000000e+00
1.3000000000000000e+00 0.0000000000000000e+00 0.0000000000000000e+00
1.4000000000000001e+00 0.0000000000000000e+00 0.0000000000000000e+00
1.5000000000000000e+00 0.0000000000000000e+00 0.0000000000000000e+00
1.6000000000000001e+00 0.0000000000000000e+00 0.0000000000000000e+00
1.7000000000000002e+00 0.0000000000000000e+00 0.0000000000000000e+00
1.8000000000000000e+00 0.0000000000000000e+00 0.0000000000000000e+00
1.9000000000000001e+00 0.0000000000000000e+00 0.0000000000000000e+00
2.0000000000000000e+00 0.0000000000000000e+00 0.0000000000000000e+00
2.1000000000000001e+00 0.0000000000000000e+00 0.0000000000000000e+00
2.2000000000000002e+00 0.0000000000000000e+00 0.0000000000000000e+00
2.3000000000000003e+00 0.0000000000000000e+00 0.0000000000000000e+00
2.4000000000000004e+00 0.0000000000000000e+00 0.0000000000000000e+00
2.5000000000000000e+00 0.0000000000000000e+00 0.0000000000000000e+00
2.6000000000000001e+00 0.0000000000000000e+00 0.0000000000000000e+00
2.7000000000000002e+00 0.0000000000000000e+00 0.0000000000000000e+00
2.8000000000000003e+00 0.0000000000000000e+00 0.0000000000000000e+00
2.9000000000000004e+00 0.0000000000000000e+00 0.0000000000000000e+00
3.0000000000000000e+00 0.0000000000000000e+00 0.0000000000000000e+00
3.1000000000000001e+00 0.0000000000000000e+00 0.0000000000000000e+00
3.2000000000000002e+00 0.0000000000000000e+00 0.0000000000000000e+00
3.3000000000000003e+00 0.0000000000000000e+00 0.0000000000000000e+00
3.4000000000000004e+00 0.0000000000000000e+00 0.0000000000000000e+00
3.5000000000000000e+00 0.0000000000000000e+00 0.0000000000000000e+00
3.6000000000000001e+00 0.0000000000000000e+00 0.0000000000000000e+00
3.7000000000000002e+00 0.0000000000000000e+00 0.0000000000000000e+00
3.8000000000000003e+00 0.0000000000000000e+00 0.0000000000000000e+00
3.9000000000000004e+00 0.0000000000000000e+00 0.0000000000000000e+00
4.0000000000000000e+00 0.0000000000000000e+00 0.0000000000000000e+00
4.1000000000000005e+00 0.0000000000000000e+00 0.0000000000000000e+00
4.2000000000000002e+00 0.0000000000000000e+00 0.0000000000000000e+00
4.2999999999999998e+00 0.0000000000000000e+00 0.0000000000000000e+00
4.4000000000000004e+00 0.0000000000000000e+00 0.0000000000000000e+00
4.5000000000000000e+00 0.0000000000000000e+00 0.0000000000000000e+00
4.6000000000000005e+00 0.0000000000000000e+00 0.0000000000000000e+00
4.7000000000000002e+00 0.0000000000000000e+00 0.0000000000000000e+00
4.8000000000000007e+00 0.0000000000000000e+00 0.0000000000000000e+00
4.9000000000000004e+00 0.0000000000000000e+00 0.0000000000000000e+00
5.0000000000000000e+00 0.0000000000000000e+00 0.0000000000000000e+00
5.1000000000000005e+00 0.0000000000000000e+00 0.0000000000000000e+00
5.2000000000000002e+00 0.0000000000000000e+00 0.0000000000000000e+00
5.3000000000000007e+00 0.0000000000000000e+00 0.0000000000000000e+00
5.4000000000000004e+00 0.0000000000000000e+00 0.0000000000000000e+00
5.5000000000000000e+00 0.0000000000000000e+00 0.0000000000000000e+00
5.6000000000000005e+00 0.0000000000000000e+00 0.0000000000000000e+00
5.7000000000000002e+00 0.0000000000000000e+00 0.0000000000000000e+00
5.8000000000000007e+00 0.0000000000000000e+00 0.0000000000000000e+00
5.9000000000000004e+00 0.0000000000000000e+00 0.0000000000000000e+00
6.0000000000000000e+00 0.0000000000000000e+00 0.0000000000000000e+00
6.1000000000000005e+00 0.0000000000000000e+00 0.0000000000000000e+00
6.2000000000000002e+00 0.0000000000000000e+00 0.0000000000000000e+00
6.3000000000000007e+00 0.0000000000000000e+00 0.0000000000000000e+00
6.4000000000000004e+00 0.0000000000000000e+00 0.0000000000000000e+00
6.5000000000000000e+00 0.0000000000000000e+00 0.0000000000000000e+00
6.6000000000000005e+00 0.0000000000000000e+00 0.0000000000000000e+00
6.7000000000000002e+00 0.0000000000000000e+00 0.0000000000000000e+00
6.8000000000000007e+00 0.0000000000000000e+00 0.0000000000000000e+00
6.9000000000000004e+00 0.0000000000000000e+00 0.0000000000000000e+00
7.0000000000000000e+00 0.0000000000000000e+00 0.0000000000000000e+00
7.1000000000000005e+00 0.0000000000000000e+00 0.0000000000000000e+00
7.2000000000000002e+00 0.0000000000000000e+00 0.0000000000000000e+00
7.3000000000000007e+00 0.0000000000000000e+00 0.0000000000000000e+00
7.4000000000000004e+00 0.0000000000000000e+00 0.0000000000000000e+00
7.5000000000000000e+00 0.0000000000000000e+00 0.0000000000000000e+00
7.6000000000000005e+00 0.0000000000000000e+00 0.0000000000000000e+00
7.7000000000000002e+00 0.0000000000000000e+00 0.0000000000000000e+00
7.8000000000000007e+00 0.0000000000000000e+00 0.0000000000000000e+00
7.9000000000000004e+00 0.0000000000000000e+00 0.0000000000000000e+00
8.0000000000000000e+00 0.0000000000000000e+00 0.0000000000000000e+00
8.0999999999999996e+00 0.0000000000000000e+00 0.0000000000000000e+00
8.2000000000000011e+00 0.0000000000000000e+00 0.0000000000000000e+00
8.3000000000000007e+00 0.0000000000000000e+00 0.0000000000000000e+00
8.4000000000000004e+00 0.0000000000000000e+00 0.0000000000000000e+00
8.5000000000000000e+00 0.0000000000000000e+00 0.0000000000000000e+00
8.5999999999999996e+00 0.0000000000000000e+00 0.0000000000000000e+00
8.7000000000000011e+00 0.0000000000000000e+00 0.0000000000000000e+00
8.8000000000000007e+00 0.0000000000000000e+00 0.0000000000000000e+00
8.9000000000000004e+00 0.0000000000000000e+00 0.0000000000000000e+00
9.0000000000000000e+00 0.0000000000000000e+00 0.0000000000000000e+00
9.0999999999999996e+00 0.0000000000000000e+00 0.0000000000000000e+00
9.2000000000000011e+00 0.0000000000000000e+00 0.0000000000000000e+00
9.3000000000000007e+00 0.0000000000000000e+00 0.0000000000000000e+00
9.4000000000000004e+00 0.0000000000000000e+00 0.0000000000000000e+00
9.5000000000000000e+00 0.0000000000000000e+00 0.0000000000000000e+00
9.6000000000000014e+00 0.0000000000000000e+00 0.0000000000000000e+00
9.7000000000000011e+00 0.0000000000000000e+00 0.0000000000000000e+00
9.8000000000000007e+00 0.0000000000000000e+00 0.0000000000000000e+00
9.9000000000000004e+00 0.0000000000000000e+00 0.0000000000000000e+00
1.0000000000000000e+01 0.0000000000000000e+00 0.0000000000000000e+00

POINT_DATA 101

VECTORS velocity float
4.7058123908307987e+00 0.0000000000000000e+00 0.0000000000000000e+00
4.7060735821097497e+00 0.0000000000000000e+00 0.0000000000000000e+00
4.7063800640619444e+00 0.0000000000000000e+00 0.0000000000000000e+00
4.7067101603700543e+00 0.0000000000000000e+00 0.0000000000000000e+00
4.7070497105204678e+00 0.0000000000000000e+00 0.0000000000000000e+00
4.7073939033503702e+00 0.0000000000000000e+00 0.0000000000000000e+00
4.7077441075566595e+00 0.0000000000000000e+00 0.0000000000000000e+00
4.7080940743561239e+00 0.0000000000000000e+00 0.0000000000000000e+00
4.7084378671832710e+00 0.0000000000000000e+00 0.0000000000000000e+00
4.7087740440829773e+00 0.0000000000000000e+00 0.0000000000000000e+00
4.7091035925484759e+00 0.0000000000000000e+00 0.0000000000000000e+00
4.7094273701253444e+00 0.0000000000000000e+00 0.0000000000000000e+00
4.7097471703939258e+00 0.0000000000000000e+00 0.0000000000000000e+00
4.7100658225348404e+00 0.0000000000000000e+00 0.0000000000000000e+00
4.7103831802697416e+00 0.0000000000000000e+00 0.0000000000000000e+00
4.7106971528145083e+00 0.0000000000000000e+00 0.0000000000000000e+00
4.7110045130843652e+00 0.0000000000000000e+00 0.0000000000000000e+00
4.7113055370640122e+00 0.0000000000000000e+00 0.0000000000000000e+00
4.7116031868188930e+00 0.0000000000000000e+00 0.0000000000000000e+00
4.7118978285567374e+00 0.0000000000000000e+00 0.0000000000000000e+00
4.7121879454941240e+00 0.0000000000000000e+00 0.0000000000000000e+00
4.7124721518307702e+00 0.0000000000000000e+00 0.0000000000000000e+00
4.7127492086714096e+00 0.0000000000000000e+00 0.0000000000000000e+00
4.7130192974868352e+00 0.0000000000000000e+00 0.0000000000000000e+00
4.7132906080928993e+00 0.0000000000000000e+00 0.0000000000000000e+00
4.7135617177396449e+00 0.0000000000000000e+00 0.0000000000000000e+00
4.7138254681093983e+00 0.0000000000000000e+00 0.0000000000000000e+00
4.7140837409875953e+00 0.0000000000000000e+00 0.0000000000000000e+00
4.7143370982854069e+00 0.0000000000000000e+00 0.0000000000000000e+00
4.7145850985580600e+00 0.0000000000000000e+00 0.0000000000000000e+00
4.7148273345823482e+00 0.0000000000000000e+00 0.0000000000000000e+00
4.7150642878106490e+00 0.0000000000000000e+00 0.0000000000000000e+00
4.7152965097463717e+00 0.0000000000000000e+00 0.0000000000000000e+00
4.7155247674801606e+00 0.0000000000000000e+00 0.0000000000000000e+00
4.7157488973227624e+00 0.0000000000000000e+00 0.0000000000000000e+00
4.7159686653132065e+00 0.0000000000000000e+00 0.0000000000000000e+00
4.7161839730285244e+00 0.0000000000000000e+00 0.0000000000000000e+00
4.7163947929431078e+00 0.0000000000000000e+00 0.0000000000000000e+00
4.7166010630594988e+00 0.0000000000000000e+00 0.0000000000000000e+00
4.7168028383935141e+00 0.0000000000000000e+00 0.0000000000000000e+00
4.7169999498792450e+00 0.0000000000000000e+00 0.0000000000000000e+00
4.7171923387660986e+00 0.0000000000000000e+00 0.0000000000000000e+00
4.7173799590934369e+00 0.0000000000000000e+00 0.0000000000000000e+00
4.7175627839598402e+00 0.0000000000000000e+00 0.0000000000000000e+00
4.7177407968803147e+00 0.0000000000000000e+00 0.0000000000000000e+00
4.7179139880611549e+00 0.0000000000000000e+00 0.0000000000000000e+00
4.7180823525292075e+00 0.0000000000000000e+00 0.0000000000000000e+00
4.7182458869503190e+00 0.0000000000000000e+00 0.0000000000000000e+00
4.7184045894281956e+00 0.0000000000000000e+00 0.0000000000000000e+00
4.7185584585770108e+00 0.0000000000000000e+00 0.0000000000000000e+00
4.7187074938962610e+00 0.0000000000000000e+00 0.0000000000000000e+00
4.7188516949173405e+00 0.0000000000000000e+00 0.0000000000000000e+00
4.7189910615112574e+00 0.0000000000000000e+00 0.0000000000000000e+00
4.7191255939927981e+00 0.0000000000000000e+00 0.0000000000000000e+00
4.7192552924878948e+00 0.0000000000000000e+00 0.0000000000000000e+00
4.7193801566953253e+00 0.0000000000000000e+00 0.0000000000000000e+00
4.7195001859049093e+00 0.0000000000000000e+00 0.0000000000000000e+00
4.7196153806820371e+00 0.0000000000000000e+00 0.0000000000000000e+00
4.7197257417476832e+00 0.0000000000000000e+00 0.0000000000000000e+00
4.7198312692432971e+00 0.0000000000000000e+00 0.0000000000000000e+00
4.7199319634933365e+00 0.0000000000000000e+00 0.0000000000000000e+00
4.7200278250935241e+00 0.0000000000000000e+00 0.0000000000000000e+00
4.7201188541471044e+00 0.0000000000000000e+00 0.0000000000000000e+00
4.7202050506615052e+00 0.0000000000000000e+00 0.0000000000000000e+00
4.7202864149523016e+00 0.0000000000000000e+00 0.0000000000000000e+00
4.7203629474463495e+00 0.0000000000000000e+00 0.0000000000000000e+00
4.7204346485469051e+00 0.0000000000000000e+00 0.0000000000000000e+00
4.7205015188710080e+00 0.0000000000000000e+00 0.0000000000000000e+00
4.7205635590659822e+00 0.0000000000000000e+00 0.0000000000000000e+00
4.7206207697877289e+00 0.0000000000000000e+00 0.0000000000000000e+00
4.7206731516076568e+00 0.0000000000000000e+00 0.0000000000000000e+00
4.7207207051576727e+00 0.0000000000000000e+00 0.0000000000000000e+00
4.7207634309228528e+00 0.0000000000000000e+00 0.0000000000000000e+00
4.7208013295625468e+00 0.0000000000000000e+00 0.0000000000000000e+00
4.7208344019936144e+00 0.0000000000000000e+00 0.0000000000000000e+00
4.7208626485582883e+00 0.0000000000000000e+00 0.0000000000000000e+00
4.7208860707637026e+00 0.0000000000000000e+00 0.0000000000000000e+00
4.7209046687871252e+00 0.0000000000000000e+00 0.0000000000000000e+00
4.7209184443613426e+00 0.0000000000000000e+00 0.0000000000000000e+00
4.7209273984956210e+00 0.0000000000000000e+00 0.0000000000000000e+00
4.7209315311650197e+00 0.0000000000000000e+00 0.0000000000000000e+00
4.7209308435374711e+00 0.0000000000000000e+00 0.0000000000000000e+00
4.7209253364301551e+00 0.0000000000000000e+00 0.0000000000000000e+00
4.7209150121919379e+00 0.0000000000000000e+00 0.0000000000000000e+00
4.7208998705995135e+00 0.0000000000000000e+00 0.0000000000000000e+00
4.7208799123998926e+00 0.0000000000000000e+00 0.0000000000000000e+00
4.7208551382881989e+00 0.0000000000000000e+00 0.0000000000000000e+00
4.7208255492456495e+00 0.0000000000000000e+00 0.0000000000000000e+00
4.7207911467603667e+00 0.0000000000000000e+00 0.0000000000000000e+00
4.7207519326622460e+00 0.0000000000000000e+00 0.0000000000000000e+00
4.7207079112530659e+00 0.0000000000000000e+00 0.0000000000000000e+00
4.7206590794752481e+00 0.0000000000000000e+00 0.0000000000000000e+00
4.7206054430164945e+00 0.0000000000000000e+00 0.0000000000000000e+00
4.7205469904985620e+00 0.0000000000000000e+00 0.0000000000000000e+00
4.7204837587148667e+00 0.0000000000000000e+00 0.0000000000000000e+00
4.7204156618414634e+00 0.0000000000000000e+00 0.0000000000000000e+00
4.7203429121008948e+00 0.0000000000000000e+00 0.0000000000000000e+00
4.7202650031811686e+00 0.0000000000000000e+00 0.0000000000000000e+00
4.7201831536116643e+00 0.0000000000000000e+00 0.0000000000000000e+00
4.7200944688914648e+00 0.0000000000000000e+00 0.0000000000000000e+00
4.7200057841712644e+00 0.0000000000000000e+00 0.0000000000000000e+00


SCALARS pressure float
LOOKUP_TABLE default
-2.2808146294742794e+01
-2.2594772650850352e+01
-2.2381399006957913e+01
-2.2167834076712825e+01
-2.1953972758303614e+01
-2.1739749600834383e+01
-2.1525140812749679e+01
-2.1310152476029803e+01
-2.1094765092421078e+01
-2.0878957717632098e+01
-2.0662724863810702e+01
-2.0446072876655560e+01
-2.0229009700975606e+01
-2.0011546286926933e+01
-1.9793697343143393e+01
-1.9575467286850110e+01
-1.9356850864430410e+01
-1.9137838546738617e+01
-1.8918436908313758e+01
-1.8698663032210604e+01
-1.8478522712579622e+01
-1.8258012682492573e+01
-1.8037128854603978e+01
-1.7815867987633357e+01
-1.7594234033658640e+01
-1.7372265843879813e+01
-1.7149967808773834e+01
-1.6927314210153405e+01
-1.6704312003302476e+01
-1.6480967738827314e+01
-1.6257283839215859e+01
-1.6033261998187719e+01
-1.5808907425202628e+01
-1.5584226139348257e+01
-1.5359225735994706e+01
-1.5133910394670524e+01
-1.4908283372196372e+01
-1.4682348319011460e+01
-1.4456109182894725e+01
-1.4229569916325337e+01
-1.4002734607466957e+01
-1.3775606118839811e+01
-1.3548187846338498e+01
-1.3320483403764680e+01
-1.3092496561419464e+01
-1.2864231182280534e+01
-1.2635691189673226e+01
-1.2406880549600334e+01
-1.2177803249325073e+01
-1.1948463292527872e+01
-1.1718864694920116e+01
-1.1489011485339034e+01
-1.1258907701502951e+01
-1.1028557390602501e+01
-1.0797964609327822e+01
-1.0567133421054274e+01
-1.0336067894412345e+01
-1.0104772103037897e+01
-9.8732501327058237e+00
-9.6415060772044381e+00
-9.4095440348199073e+00
-9.1773681107615417e+00
-8.9449824171511327e+00
-8.7123910697560678e+00
-8.4795981897130286e+00
-8.2466079051660337e+00
-8.0134243505334961e+00
-7.7800516656942991e+00
-7.5464939967670972e+00
-7.3127554953335112e+00
-7.0788403180595765e+00
-6.8447526260297540e+00
-6.6104965849199475e+00
-6.3760763638861366e+00
-6.1414961368548244e+00
-5.9067600828094626e+00
-5.6718723826170079e+00
-5.4368372257031563e+00
-5.2016588004310105e+00
-4.9663413040845157e+00
-4.7308889338466740e+00
-4.4953058857120771e+00
-4.2595963630559410e+00
-4.0237645710860690e+00
-3.7878147238357749e+00
-3.5517510282306604e+00
-3.3155776956746887e+00
-3.0792989407517091e+00
-2.8429189818305853e+00
-2.6064420382670961e+00
-2.3698723341711068e+00
-2.1332141055211564e+00
-1.8964715622975810e+00
-1.6596489439817457e+00
-1.4227504320515825e+00
-1.1857803807283114e+00
-9.4874271142950017e-01
-7.1164238625839427e-01
-4.7448188866108110e-01
-2.3726957919363786e-01
0.0000000000000000e+00


SCALARS diameter float
LOOKUP_TABLE default
9.9793788219511892e-01
9.9796244235393627e-01
9.9798398140846933e-01
9.9800401524647542e-01
9.9802354923710057e-01
9.9804320597837382e-01
9.9806056352387051e-01
9.9807726241382433e-01
9.9809585482012952e-01
9.9811586826757637e-01
9.9813655138256263e-01
9.9815736939178623e-01
9.9817818849457662e-01
9.9819787063257603e-01
9.9821645702129425e-01
9.9823510648034686e-01
9.9825438436418967e-01
9.9827467397066916e-01
9.9829462817417192e-01
9.9831408098968022e-01
9.9833359456643056e-01
9.9835365423515743e-01
9.9837431550418065e-01
9.9839567344974800e-01
9.9841559188433548e-01
9.9843299873579749e-01
9.9845293125401813e-01
9.9847293628089229e-01
9.9849297205713283e-01
9.9851307936622991e-01
9.9853364159590874e-01
9.9855423844002156e-01
9.9857486117908500e-01
9.9859515925634179e-01
9.9861536350834146e-01
9.9863559807963542e-01
9.9865586433842546e-01
9.9867616312441876e-01
9.9869649395723437e-01
9.9871685801867238e-01
9.9873726153543640e-01
9.9875769190664343e-01
9.9877815149608995e-01
9.9879863975045180e-01
9.9881915636014029e-01
9.9883970099208497e-01
9.9886027316032677e-01
9.9888087259156166e-01
9.9890149880053436e-01
9.9892215138505225e-01
9.9894282987130767e-01
9.9896353382984204e-01
9.9898426287647502e-01
9.9900501640492068e-01
9.9902579396510538e-01
9.9904659519388239e-01
9.9906741995439419e-01
9.9908826765939729e-01
9.9910913758798481e-01
9.9913002941291806e-01
9.9915094273188154e-01
9.9917187699942189e-01
9.9919283179399254e-01
9.9921380679848437e-01
9.9923480158349198e-01
9.9925581566007393e-01
9.9927684862984945e-01
9.9929790001151553e-01
9.9931896932875153e-01
9.9934005614556232e-01
9.9936116002835873e-01
9.9938228057173906e-01
9.9940341732896132e-01
9.9942456990440620e-01
9.9944573771400058e-01
9.9946692043682661e-01
9.9948811753807820e-01
9.9950932849002594e-01
9.9953055314364581e-01
9.9955179031593699e-01
9.9957304043350315e-01
9.9959430259149695e-01
9.9961557660439382e-01
9.9963686153736098e-01
9.9965815711616413e-01
9.9967946361177418e-01
9.9970077993292161e-01
9.9972210628700553e-01
9.9974344185754016e-01
9.9976478573810013e-01
9.9978613720441323e-01
9.9980749578724848e-01
9.9982886284201711e-01
9.9985023597749256e-01
9.9987161551381465e-01
9.9989300085463662e-01
9.9991439160884232e-01
9.9993578731170585e-01
9.9995718736179506e-01
9.9997859135450207e-01
1.0000000005579206e+00


SCALARS iters float
LOOKUP_TABLE default
3.0000000000000000e+00
3.0000000000000000e+00
3.0000000000000000e+00
3.0000000000000000e+00
3.0000000000000000e+00
3.0000000000000000e+00
3.0000000000000000e+00
3.0000000000000000e+00
3.0000000000000000e+00
3.0000000000000000e+00
3.0000000000000000e+00
3.0000000000000000e+00
3.0000000000000000e+00
3.0000000000000000e+00
3.0000000000000000e+00
3.0000000000000000e+00
3.0000000000000000e+00
3.0000000000000000e+00
3.0000000000000000e+00
3.0000000000000000e+00
3.0000000000000000e+00
3.0000000000000000e+00
3.0000000000000000e+00
3.0000000000000000e+00
3.0000000000000000e+00
3.0000000000000000e+00
3.0000000000000000e+00
3.0000000000000000e+00
3.0000000000000000e+00
3.0000000000000000e+00
3.0000000000000000e+00
3.0000000000000000e+00
3.0000000000000000e+00
3.0000000000000000e+00
3.0000000000000000e+00
3.0000000000000000e+00
3.0000000000000000e+00
3.0000000000000000e+00
3.0000000000000000e+00
3.0000000000000000e+00
3.0000000000000000e+00
3.0000000000000000e+00
3.0000000000000000e+00
3.0000000000000000e+00
3.0000000000000000e+00
3.0000000000000000e+00
3.0000000000000000e+00
3.0000000000000000e+00
3.0000000000000000e+00
3.0000000000000000e+00
3.0000000000000000e+00
3.0000000000000000e+00
3.0000000000000000e+00
3.0000000000000000e+00
3.0000000000000000e+00
3.0000000000000000e+00
3.0000000000000000e+00
3.0000000000000000e+00
3.0000000000000000e+00
3.0000000000000000e+00
3.0000000000000000e+00
3.0000000000000000e+00
3.0000000000000000e+00
3.0000000000000000e+00
3.0000000000000000e+00
3.0000000000000000e+00
3.0000000000000000e+00
3.0000000000000000e+00
3.0000000000000000e+00
3.0000000000000000e+00
3.0000000000000000e+00
3.0000000000000000e+00
3.0000000000000000e+00
3.0000000000000000e+00
3.0000000000000000e+00
3.0000000000000000e+00
3.0000000000000000e+00
3.0000000000000000e+00
3.0000000000000000e+00
3.0000000000000000e+00
3.0000000000000000e+00
3.0000000000000000e+00
3.0000000000000000e+00
3.0000000000000000e+00
3.0000000000000000e+00
3.0000000000000000e+00
3.0000000000000000e+00
3.0000000000000000e+00
3.0000000000000000e+00
3.0000000000000000e+00
3.0000000000000000e+00
3.0000000000000000e+00
3.0000000000000000e+00
3.0000000000000000e+00
3.0000000000000000e+00
3.0000000000000000e+00
3.0000000000000000e+00
3.0000000000000000e+00
3.0000000000000000e+00
3.0000000000000000e+00
3.0000000000000000e+00


