# vtk DataFile Version 2.0

ASCII

DATASET UNSTRUCTURED_GRID

POINTS 101 float

0.0000000000000000e+00 0.0000000000000000e+00 0.0000000000000000e+00
1.0000000000000001e-01 0.0000000000000000e+00 0.0000000000000000e+00
2.0000000000000001e-01 0.0000000000000000e+00 0.0000000000000000e+00
3.0000000000000004e-01 0.0000000000000000e+00 0.0000000000000000e+00
4.0000000000000002e-01 0.0000000000000000e+00 0.0000000000000000e+00
5.0000000000000000e-01 0.0000000000000000e+00 0.0000000000000000e+00
6.0000000000000009e-01 0.0000000000000000e+00 0.0000000000000000e+00
7.0000000000000007e-01 0.0000000000000000e+00 0.0000000000000000e+00
8.0000000000000004e-01 0.0000000000000000e+00 0.0000000000000000e+00
9.0000000000000002e-01 0.0000000000000000e+00 0.0000000000000000e+00
1.0000000000000000e+00 0.0000000000000000e+00 0.0000000000000000e+00
1.1000000000000001e+00 0.0000000000000000e+00 0.0000000000000000e+00
1.2000000000000002e+00 0.0000000000000000e+00 0.0000000000000000e+00
1.3000000000000000e+00 0.0000000000000000e+00 0.0000000000000000e+00
1.4000000000000001e+00 0.0000000000000000e+00 0.0000000000000000e+00
1.5000000000000000e+00 0.0000000000000000e+00 0.0000000000000000e+00
1.6000000000000001e+00 0.0000000000000000e+00 0.0000000000000000e+00
1.7000000000000002e+00 0.0000000000000000e+00 0.0000000000000000e+00
1.8000000000000000e+00 0.0000000000000000e+00 0.0000000000000000e+00
1.9000000000000001e+00 0.0000000000000000e+00 0.0000000000000000e+00
2.0000000000000000e+00 0.0000000000000000e+00 0.0000000000000000e+00
2.1000000000000001e+00 0.0000000000000000e+00 0.0000000000000000e+00
2.2000000000000002e+00 0.0000000000000000e+00 0.0000000000000000e+00
2.3000000000000003e+00 0.0000000000000000e+00 0.0000000000000000e+00
2.4000000000000004e+00 0.0000000000000000e+00 0.0000000000000000e+00
2.5000000000000000e+00 0.0000000000000000e+00 0.0000000000000000e+00
2.6000000000000001e+00 0.0000000000000000e+00 0.0000000000000000e+00
2.7000000000000002e+00 0.0000000000000000e+00 0.0000000000000000e+00
2.8000000000000003e+00 0.0000000000000000e+00 0.0000000000000000e+00
2.9000000000000004e+00 0.0000000000000000e+00 0.0000000000000000e+00
3.0000000000000000e+00 0.0000000000000000e+00 0.0000000000000000e+00
3.1000000000000001e+00 0.0000000000000000e+00 0.0000000000000000e+00
3.2000000000000002e+00 0.0000000000000000e+00 0.0000000000000000e+00
3.3000000000000003e+00 0.0000000000000000e+00 0.0000000000000000e+00
3.4000000000000004e+00 0.0000000000000000e+00 0.0000000000000000e+00
3.5000000000000000e+00 0.0000000000000000e+00 0.0000000000000000e+00
3.6000000000000001e+00 0.0000000000000000e+00 0.0000000000000000e+00
3.7000000000000002e+00 0.0000000000000000e+00 0.0000000000000000e+00
3.8000000000000003e+00 0.0000000000000000e+00 0.0000000000000000e+00
3.9000000000000004e+00 0.0000000000000000e+00 0.0000000000000000e+00
4.0000000000000000e+00 0.0000000000000000e+00 0.0000000000000000e+00
4.1000000000000005e+00 0.0000000000000000e+00 0.0000000000000000e+00
4.2000000000000002e+00 0.0000000000000000e+00 0.0000000000000000e+00
4.2999999999999998e+00 0.0000000000000000e+00 0.0000000000000000e+00
4.4000000000000004e+00 0.0000000000000000e+00 0.0000000000000000e+00
4.5000000000000000e+00 0.0000000000000000e+00 0.0000000000000000e+00
4.6000000000000005e+00 0.0000000000000000e+00 0.0000000000000000e+00
4.7000000000000002e+00 0.0000000000000000e+00 0.0000000000000000e+00
4.8000000000000007e+00 0.0000000000000000e+00 0.0000000000000000e+00
4.9000000000000004e+00 0.0000000000000000e+00 0.0000000000000000e+00
5.0000000000000000e+00 0.0000000000000000e+00 0.0000000000000000e+00
5.1000000000000005e+00 0.0000000000000000e+00 0.0000000000000000e+00
5.2000000000000002e+00 0.0000000000000000e+00 0.0000000000000000e+00
5.3000000000000007e+00 0.0000000000000000e+00 0.0000000000000000e+00
5.4000000000000004e+00 0.0000000000000000e+00 0.0000000000000000e+00
5.5000000000000000e+00 0.0000000000000000e+00 0.0000000000000000e+00
5.6000000000000005e+00 0.0000000000000000e+00 0.0000000000000000e+00
5.7000000000000002e+00 0.0000000000000000e+00 0.0000000000000000e+00
5.8000000000000007e+00 0.0000000000000000e+00 0.0000000000000000e+00
5.9000000000000004e+00 0.0000000000000000e+00 0.0000000000000000e+00
6.0000000000000000e+00 0.0000000000000000e+00 0.0000000000000000e+00
6.1000000000000005e+00 0.0000000000000000e+00 0.0000000000000000e+00
6.2000000000000002e+00 0.0000000000000000e+00 0.0000000000000000e+00
6.3000000000000007e+00 0.0000000000000000e+00 0.0000000000000000e+00
6.4000000000000004e+00 0.0000000000000000e+00 0.0000000000000000e+00
6.5000000000000000e+00 0.0000000000000000e+00 0.0000000000000000e+00
6.6000000000000005e+00 0.0000000000000000e+00 0.0000000000000000e+00
6.7000000000000002e+00 0.0000000000000000e+00 0.0000000000000000e+00
6.8000000000000007e+00 0.0000000000000000e+00 0.0000000000000000e+00
6.9000000000000004e+00 0.0000000000000000e+00 0.0000000000000000e+00
7.0000000000000000e+00 0.0000000000000000e+00 0.0000000000000000e+00
7.1000000000000005e+00 0.0000000000000000e+00 0.0000000000000000e+00
7.2000000000000002e+00 0.0000000000000000e+00 0.0000000000000000e+00
7.3000000000000007e+00 0.0000000000000000e+00 0.0000000000000000e+00
7.4000000000000004e+00 0.0000000000000000e+00 0.0000000000000000e+00
7.5000000000000000e+00 0.0000000000000000e+00 0.0000000000000000e+00
7.6000000000000005e+00 0.0000000000000000e+00 0.0000000000000000e+00
7.7000000000000002e+00 0.0000000000000000e+00 0.0000000000000000e+00
7.8000000000000007e+00 0.0000000000000000e+00 0.0000000000000000e+00
7.9000000000000004e+00 0.0000000000000000e+00 0.0000000000000000e+00
8.0000000000000000e+00 0.0000000000000000e+00 0.0000000000000000e+00
8.0999999999999996e+00 0.0000000000000000e+00 0.0000000000000000e+00
8.2000000000000011e+00 0.0000000000000000e+00 0.0000000000000000e+00
8.3000000000000007e+00 0.0000000000000000e+00 0.0000000000000000e+00
8.4000000000000004e+00 0.0000000000000000e+00 0.0000000000000000e+00
8.5000000000000000e+00 0.0000000000000000e+00 0.0000000000000000e+00
8.5999999999999996e+00 0.0000000000000000e+00 0.0000000000000000e+00
8.7000000000000011e+00 0.0000000000000000e+00 0.0000000000000000e+00
8.8000000000000007e+00 0.0000000000000000e+00 0.0000000000000000e+00
8.9000000000000004e+00 0.0000000000000000e+00 0.0000000000000000e+00
9.0000000000000000e+00 0.0000000000000000e+00 0.0000000000000000e+00
9.0999999999999996e+00 0.0000000000000000e+00 0.0000000000000000e+00
9.2000000000000011e+00 0.0000000000000000e+00 0.0000000000000000e+00
9.3000000000000007e+00 0.0000000000000000e+00 0.0000000000000000e+00
9.4000000000000004e+00 0.0000000000000000e+00 0.0000000000000000e+00
9.5000000000000000e+00 0.0000000000000000e+00 0.0000000000000000e+00
9.6000000000000014e+00 0.0000000000000000e+00 0.0000000000000000e+00
9.7000000000000011e+00 0.0000000000000000e+00 0.0000000000000000e+00
9.8000000000000007e+00 0.0000000000000000e+00 0.0000000000000000e+00
9.9000000000000004e+00 0.0000000000000000e+00 0.0000000000000000e+00
1.0000000000000000e+01 0.0000000000000000e+00 0.0000000000000000e+00

POINT_DATA 101

VECTORS velocity float
3.1664561030115994e+00 0.0000000000000000e+00 0.0000000000000000e+00
3.1662432239755574e+00 0.0000000000000000e+00 0.0000000000000000e+00
3.1660379150026774e+00 0.0000000000000000e+00 0.0000000000000000e+00
3.1658362472399730e+00 0.0000000000000000e+00 0.0000000000000000e+00
3.1656368030800115e+00 0.0000000000000000e+00 0.0000000000000000e+00
3.1654396461044509e+00 0.0000000000000000e+00 0.0000000000000000e+00
3.1652460750262637e+00 0.0000000000000000e+00 0.0000000000000000e+00
3.1650572864685631e+00 0.0000000000000000e+00 0.0000000000000000e+00
3.1648702966290578e+00 0.0000000000000000e+00 0.0000000000000000e+00
3.1646817133653093e+00 0.0000000000000000e+00 0.0000000000000000e+00
3.1644924939973427e+00 0.0000000000000000e+00 0.0000000000000000e+00
3.1643040279473964e+00 0.0000000000000000e+00 0.0000000000000000e+00
3.1641167634903846e+00 0.0000000000000000e+00 0.0000000000000000e+00
3.1639323091383678e+00 0.0000000000000000e+00 0.0000000000000000e+00
3.1637516752925250e+00 0.0000000000000000e+00 0.0000000000000000e+00
3.1635742261435658e+00 0.0000000000000000e+00 0.0000000000000000e+00
3.1633992692699939e+00 0.0000000000000000e+00 0.0000000000000000e+00
3.1632257777714234e+00 0.0000000000000000e+00 0.0000000000000000e+00
3.1630529162563534e+00 0.0000000000000000e+00 0.0000000000000000e+00
3.1628805827906290e+00 0.0000000000000000e+00 0.0000000000000000e+00
3.1627093591160604e+00 0.0000000000000000e+00 0.0000000000000000e+00
3.1625401811790326e+00 0.0000000000000000e+00 0.0000000000000000e+00
3.1623737303219328e+00 0.0000000000000000e+00 0.0000000000000000e+00
3.1622105989113369e+00 0.0000000000000000e+00 0.0000000000000000e+00
3.1620500077482796e+00 0.0000000000000000e+00 0.0000000000000000e+00
3.1618905994296100e+00 0.0000000000000000e+00 0.0000000000000000e+00
3.1617327177501182e+00 0.0000000000000000e+00 0.0000000000000000e+00
3.1615765696988056e+00 0.0000000000000000e+00 0.0000000000000000e+00
3.1614223279048335e+00 0.0000000000000000e+00 0.0000000000000000e+00
3.1612695828630062e+00 0.0000000000000000e+00 0.0000000000000000e+00
3.1611180847936620e+00 0.0000000000000000e+00 0.0000000000000000e+00
3.1609681257795801e+00 0.0000000000000000e+00 0.0000000000000000e+00
3.1608200953929413e+00 0.0000000000000000e+00 0.0000000000000000e+00
3.1606744466592480e+00 0.0000000000000000e+00 0.0000000000000000e+00
3.1605310494773442e+00 0.0000000000000000e+00 0.0000000000000000e+00
3.1603896639684383e+00 0.0000000000000000e+00 0.0000000000000000e+00
3.1602501961225165e+00 0.0000000000000000e+00 0.0000000000000000e+00
3.1601125881086523e+00 0.0000000000000000e+00 0.0000000000000000e+00
3.1599768692455261e+00 0.0000000000000000e+00 0.0000000000000000e+00
3.1598428940607066e+00 0.0000000000000000e+00 0.0000000000000000e+00
3.1597105062340516e+00 0.0000000000000000e+00 0.0000000000000000e+00
3.1595798423642827e+00 0.0000000000000000e+00 0.0000000000000000e+00
3.1594509607999828e+00 0.0000000000000000e+00 0.0000000000000000e+00
3.1593238821941636e+00 0.0000000000000000e+00 0.0000000000000000e+00
3.1591986138381754e+00 0.0000000000000000e+00 0.0000000000000000e+00
3.1590751589946988e+00 0.0000000000000000e+00 0.0000000000000000e+00
3.1589535185665869e+00 0.0000000000000000e+00 0.0000000000000000e+00
3.1588336921527924e+00 0.0000000000000000e+00 0.0000000000000000e+00
3.1587156798161833e+00 0.0000000000000000e+00 0.0000000000000000e+00
3.1585994819061116e+00 0.0000000000000000e+00 0.0000000000000000e+00
3.1584850984640958e+00 0.0000000000000000e+00 0.0000000000000000e+00
3.1583725296050922e+00 0.0000000000000000e+00 0.0000000000000000e+00
3.1582617754815829e+00 0.0000000000000000e+00 0.0000000000000000e+00
3.1581528360242639e+00 0.0000000000000000e+00 0.0000000000000000e+00
3.1580457114054674e+00 0.0000000000000000e+00 0.0000000000000000e+00
3.1579404018441704e+00 0.0000000000000000e+00 0.0000000000000000e+00
3.1578369070953412e+00 0.0000000000000000e+00 0.0000000000000000e+00
3.1577352272345300e+00 0.0000000000000000e+00 0.0000000000000000e+00
3.1576353628019915e+00 0.0000000000000000e+00 0.0000000000000000e+00
3.1575373139749985e+00 0.0000000000000000e+00 0.0000000000000000e+00
3.1574410808018740e+00 0.0000000000000000e+00 0.0000000000000000e+00
3.1573466632445739e+00 0.0000000000000000e+00 0.0000000000000000e+00
3.1572540613781186e+00 0.0000000000000000e+00 0.0000000000000000e+00
3.1571632752668415e+00 0.0000000000000000e+00 0.0000000000000000e+00
3.1570743050484595e+00 0.0000000000000000e+00 0.0000000000000000e+00
3.1569871508814060e+00 0.0000000000000000e+00 0.0000000000000000e+00
3.1569018128401192e+00 0.0000000000000000e+00 0.0000000000000000e+00
3.1568182911002278e+00 0.0000000000000000e+00 0.0000000000000000e+00
3.1567365858283161e+00 0.0000000000000000e+00 0.0000000000000000e+00
3.1566566970840237e+00 0.0000000000000000e+00 0.0000000000000000e+00
3.1565786249103298e+00 0.0000000000000000e+00 0.0000000000000000e+00
3.1565023693182530e+00 0.0000000000000000e+00 0.0000000000000000e+00
3.1564279303014429e+00 0.0000000000000000e+00 0.0000000000000000e+00
3.1563553080619307e+00 0.0000000000000000e+00 0.0000000000000000e+00
3.1562845026870523e+00 0.0000000000000000e+00 0.0000000000000000e+00
3.1562155143721720e+00 0.0000000000000000e+00 0.0000000000000000e+00
3.1561483433931015e+00 0.0000000000000000e+00 0.0000000000000000e+00
3.1560829897451033e+00 0.0000000000000000e+00 0.0000000000000000e+00
3.1560194534685122e+00 0.0000000000000000e+00 0.0000000000000000e+00
3.1559577347839438e+00 0.0000000000000000e+00 0.0000000000000000e+00
3.1558978337148247e+00 0.0000000000000000e+00 0.0000000000000000e+00
3.1558397503042932e+00 0.0000000000000000e+00 0.0000000000000000e+00
3.1557834846639277e+00 0.0000000000000000e+00 0.0000000000000000e+00
3.1557290375724576e+00 0.0000000000000000e+00 0.0000000000000000e+00
3.1556764090145446e+00 0.0000000000000000e+00 0.0000000000000000e+00
3.1556255977300536e+00 0.0000000000000000e+00 0.0000000000000000e+00
3.1555766043219777e+00 0.0000000000000000e+00 0.0000000000000000e+00
3.1555294289493170e+00 0.0000000000000000e+00 0.0000000000000000e+00
3.1554840719423853e+00 0.0000000000000000e+00 0.0000000000000000e+00
3.1554405339212055e+00 0.0000000000000000e+00 0.0000000000000000e+00
3.1553988152979549e+00 0.0000000000000000e+00 0.0000000000000000e+00
3.1553589158447983e+00 0.0000000000000000e+00 0.0000000000000000e+00
3.1553208334637910e+00 0.0000000000000000e+00 0.0000000000000000e+00
3.1552845741731446e+00 0.0000000000000000e+00 0.0000000000000000e+00
3.1552501256320080e+00 0.0000000000000000e+00 0.0000000000000000e+00
3.1552175165679666e+00 0.0000000000000000e+00 0.0000000000000000e+00
3.1551866766649357e+00 0.0000000000000000e+00 0.0000000000000000e+00
3.1551577793132628e+00 0.0000000000000000e+00 0.0000000000000000e+00
3.1551303993913895e+00 0.0000000000000000e+00 0.0000000000000000e+00
3.1551055791142106e+00 0.0000000000000000e+00 0.0000000000000000e+00
3.1550807588370322e+00 0.0000000000000000e+00 0.0000000000000000e+00


SCALARS pressure float
LOOKUP_TABLE default
-7.3254991709381247e+00
-7.2532843409756147e+00
-7.1810695110131046e+00
-7.1088324811044767e+00
-7.0365621711003294e+00
-6.9642547937836090e+00
-6.8919109113802453e+00
-6.8195350892623976e+00
-6.7471307482624114e+00
-6.6746890566872299e+00
-6.6022007986479743e+00
-6.5296708560277512e+00
-6.4571044796255244e+00
-6.3845038342920262e+00
-6.3118745528062474e+00
-6.2392198754813117e+00
-6.1665377934427745e+00
-6.0938257048213886e+00
-6.0210811358758125e+00
-5.9483033590656023e+00
-5.8754933355657846e+00
-5.8026535021377654e+00
-5.7297868835644801e+00
-5.6568953003543943e+00
-5.5839803409369537e+00
-5.5110398379705581e+00
-5.4380707636295282e+00
-5.3650753212726912e+00
-5.2920547775932008e+00
-5.2190102008858572e+00
-5.1459408065188184e+00
-5.0728462157673588e+00
-4.9997278197264530e+00
-4.9265870724433132e+00
-4.8534256695318136e+00
-4.7802435160875483e+00
-4.7070403275996631e+00
-4.6338163537941925e+00
-4.5605719505633502e+00
-4.4873077723660124e+00
-4.4140238568155770e+00
-4.3407201409597755e+00
-4.2673975694831956e+00
-4.1940567868057874e+00
-4.1206983330885629e+00
-4.0473227123072801e+00
-3.9739304187209941e+00
-3.9005219424818094e+00
-3.8270977719831243e+00
-3.7536583990551953e+00
-3.6802043176615213e+00
-3.6067360223567659e+00
-3.5332540096908760e+00
-3.4597587779542964e+00
-3.3862508263299644e+00
-3.3127306562023837e+00
-3.2391987705637693e+00
-3.1656556720504878e+00
-3.0921018659027744e+00
-3.0185378601693782e+00
-2.9449641628676262e+00
-2.8713812829042209e+00
-2.7977897301921120e+00
-2.7241900158672459e+00
-2.6505826519269289e+00
-2.5769681515822236e+00
-2.5033470290922901e+00
-2.4297197993620672e+00
-2.3560869785710223e+00
-2.2824490837231783e+00
-2.2088066323360294e+00
-2.1351601426700042e+00
-2.0615101336278796e+00
-1.9878571246160286e+00
-1.9142016361423890e+00
-1.8405441888394676e+00
-1.7668853038823600e+00
-1.6932255034134815e+00
-1.6195653088089901e+00
-1.5459052424378066e+00
-1.4722458271283561e+00
-1.3985875849087024e+00
-1.3249310382397130e+00
-1.2512767097426298e+00
-1.1776251244590423e+00
-1.1039768043893992e+00
-1.0303322681659013e+00
-9.5669203985476226e-01
-8.8305664330669975e-01
-8.0942660146602241e-01
-7.3580243797382983e-01
-6.6218467512562562e-01
-5.8857383379311479e-01
-5.1497042753128619e-01
-4.4137499802232050e-01
-3.6778802065109545e-01
-2.9421011873332087e-01
-2.2064155638942601e-01
-1.4708347868838997e-01
-7.3534866593542123e-02
0.0000000000000000e+00


SCALARS diameter float
LOOKUP_TABLE default
9.9933635527267950e-01
9.9934419593273438e-01
9.9935129853407756e-01
9.9935865964949600e-01
9.9936589108924523e-01
9.9937309620941084e-01
9.9937934804409245e-01
9.9938443480935912e-01
9.9938923887359343e-01
9.9939600637245385e-01
9.9940343948875210e-01
9.9941086402873835e-01
9.9941834090905413e-01
9.9942545606639843e-01
9.9943158456754211e-01
9.9943747832314633e-01
9.9944328214904332e-01
9.9944943189193658e-01
9.9945595827715905e-01
9.9946299495258883e-01
9.9947017806906180e-01
9.9947727392170671e-01
9.9948393509702083e-01
9.9949020311008174e-01
9.9949608717901994e-01
9.9950256397411164e-01
9.9950908149290263e-01
9.9951554171820844e-01
9.9952200613422348e-01
9.9952850637137169e-01
9.9953538778862128e-01
9.9954226330992157e-01
9.9954914467415557e-01
9.9955575263859209e-01
9.9956223898984820e-01
9.9956872698422228e-01
9.9957521642854730e-01
9.9958170761310894e-01
9.9958820007396532e-01
9.9959470439210729e-01
9.9960135974394770e-01
9.9960801174287295e-01
9.9961466220336248e-01
9.9962131175555946e-01
9.9962796064867632e-01
9.9963460886111188e-01
9.9964125623773759e-01
9.9964790336555875e-01
9.9965455020759364e-01
9.9966119662876096e-01
9.9966784272425091e-01
9.9967448853171070e-01
9.9968113400323078e-01
9.9968777924399654e-01
9.9969442426388866e-01
9.9970106896420230e-01
9.9970771353081589e-01
9.9971435809487919e-01
9.9972100231195982e-01
9.9972764625019006e-01
9.9973428997351210e-01
9.9974093352582649e-01
9.9974757695702954e-01
9.9975422026621197e-01
9.9976086349648985e-01
9.9976750657955371e-01
9.9977414958719601e-01
9.9978079247793039e-01
9.9978743523043756e-01
9.9979407787374575e-01
9.9980072044902568e-01
9.9980736297686679e-01
9.9981400552219435e-01
9.9982064805990645e-01
9.9982729056177255e-01
9.9983393308338331e-01
9.9984057549851835e-01
9.9984721786141795e-01
9.9985386028912515e-01
9.9986050259311443e-01
9.9986714496004203e-01
9.9987378735690013e-01
9.9988042981988601e-01
9.9988707210903371e-01
9.9989371406965033e-01
9.9990035659384802e-01
9.9990699940655836e-01
9.9991364214221734e-01
9.9992028505955177e-01
9.9992692776985659e-01
9.9993357029871410e-01
9.9994021270720079e-01
9.9994685587185328e-01
9.9995349841270909e-01
9.9996014115500764e-01
9.9996678411602424e-01
9.9997342710104620e-01
9.9998007017136681e-01
9.9998671328424782e-01
9.9999335687618984e-01
1.0000000016515851e+00


SCALARS iters float
LOOKUP_TABLE default
3.0000000000000000e+00
3.0000000000000000e+00
3.0000000000000000e+00
3.0000000000000000e+00
3.0000000000000000e+00
3.0000000000000000e+00
3.0000000000000000e+00
3.0000000000000000e+00
3.0000000000000000e+00
3.0000000000000000e+00
3.0000000000000000e+00
3.0000000000000000e+00
3.0000000000000000e+00
3.0000000000000000e+00
3.0000000000000000e+00
3.0000000000000000e+00
3.0000000000000000e+00
3.0000000000000000e+00
3.0000000000000000e+00
3.0000000000000000e+00
3.0000000000000000e+00
3.0000000000000000e+00
3.0000000000000000e+00
3.0000000000000000e+00
3.0000000000000000e+00
3.0000000000000000e+00
3.0000000000000000e+00
3.0000000000000000e+00
3.0000000000000000e+00
3.0000000000000000e+00
3.0000000000000000e+00
3.0000000000000000e+00
3.0000000000000000e+00
3.0000000000000000e+00
3.0000000000000000e+00
3.0000000000000000e+00
3.0000000000000000e+00
3.0000000000000000e+00
3.0000000000000000e+00
3.0000000000000000e+00
3.0000000000000000e+00
3.0000000000000000e+00
3.0000000000000000e+00
3.0000000000000000e+00
3.0000000000000000e+00
3.0000000000000000e+00
3.0000000000000000e+00
3.0000000000000000e+00
3.0000000000000000e+00
3.0000000000000000e+00
3.0000000000000000e+00
3.0000000000000000e+00
3.0000000000000000e+00
3.0000000000000000e+00
3.0000000000000000e+00
3.0000000000000000e+00
3.0000000000000000e+00
3.0000000000000000e+00
3.0000000000000000e+00
3.0000000000000000e+00
3.0000000000000000e+00
3.0000000000000000e+00
3.0000000000000000e+00
3.0000000000000000e+00
3.0000000000000000e+00
3.0000000000000000e+00
3.0000000000000000e+00
3.0000000000000000e+00
3.0000000000000000e+00
3.0000000000000000e+00
3.0000000000000000e+00
3.0000000000000000e+00
3.0000000000000000e+00
3.0000000000000000e+00
3.0000000000000000e+00
3.0000000000000000e+00
3.0000000000000000e+00
3.0000000000000000e+00
3.0000000000000000e+00
3.0000000000000000e+00
3.0000000000000000e+00
3.0000000000000000e+00
3.0000000000000000e+00
3.0000000000000000e+00
3.0000000000000000e+00
3.0000000000000000e+00
3.0000000000000000e+00
3.0000000000000000e+00
3.0000000000000000e+00
3.0000000000000000e+00
3.0000000000000000e+00
3.0000000000000000e+00
3.0000000000000000e+00
3.0000000000000000e+00
3.0000000000000000e+00
3.0000000000000000e+00
3.0000000000000000e+00
3.0000000000000000e+00
3.0000000000000000e+00
3.0000000000000000e+00
3.0000000000000000e+00


