# vtk DataFile Version 2.0

ASCII

DATASET UNSTRUCTURED_GRID

POINTS 101 float

0.0000000000000000e+00 0.0000000000000000e+00 0.0000000000000000e+00
1.0000000000000001e-01 0.0000000000000000e+00 0.0000000000000000e+00
2.0000000000000001e-01 0.0000000000000000e+00 0.0000000000000000e+00
3.0000000000000004e-01 0.0000000000000000e+00 0.0000000000000000e+00
4.0000000000000002e-01 0.0000000000000000e+00 0.0000000000000000e+00
5.0000000000000000e-01 0.0000000000000000e+00 0.0000000000000000e+00
6.0000000000000009e-01 0.0000000000000000e+00 0.0000000000000000e+00
7.0000000000000007e-01 0.0000000000000000e+00 0.0000000000000000e+00
8.0000000000000004e-01 0.0000000000000000e+00 0.0000000000000000e+00
9.0000000000000002e-01 0.0000000000000000e+00 0.0000000000000000e+00
1.0000000000000000e+00 0.0000000000000000e+00 0.0000000000000000e+00
1.1000000000000001e+00 0.0000000000000000e+00 0.0000000000000000e+00
1.2000000000000002e+00 0.0000000000000000e+00 0.0000000000000000e+00
1.3000000000000000e+00 0.0000000000000000e+00 0.0000000000000000e+00
1.4000000000000001e+00 0.0000000000000000e+00 0.0000000000000000e+00
1.5000000000000000e+00 0.0000000000000000e+00 0.0000000000000000e+00
1.6000000000000001e+00 0.0000000000000000e+00 0.0000000000000000e+00
1.7000000000000002e+00 0.0000000000000000e+00 0.0000000000000000e+00
1.8000000000000000e+00 0.0000000000000000e+00 0.0000000000000000e+00
1.9000000000000001e+00 0.0000000000000000e+00 0.0000000000000000e+00
2.0000000000000000e+00 0.0000000000000000e+00 0.0000000000000000e+00
2.1000000000000001e+00 0.0000000000000000e+00 0.0000000000000000e+00
2.2000000000000002e+00 0.0000000000000000e+00 0.0000000000000000e+00
2.3000000000000003e+00 0.0000000000000000e+00 0.0000000000000000e+00
2.4000000000000004e+00 0.0000000000000000e+00 0.0000000000000000e+00
2.5000000000000000e+00 0.0000000000000000e+00 0.0000000000000000e+00
2.6000000000000001e+00 0.0000000000000000e+00 0.0000000000000000e+00
2.7000000000000002e+00 0.0000000000000000e+00 0.0000000000000000e+00
2.8000000000000003e+00 0.0000000000000000e+00 0.0000000000000000e+00
2.9000000000000004e+00 0.0000000000000000e+00 0.0000000000000000e+00
3.0000000000000000e+00 0.0000000000000000e+00 0.0000000000000000e+00
3.1000000000000001e+00 0.0000000000000000e+00 0.0000000000000000e+00
3.2000000000000002e+00 0.0000000000000000e+00 0.0000000000000000e+00
3.3000000000000003e+00 0.0000000000000000e+00 0.0000000000000000e+00
3.4000000000000004e+00 0.0000000000000000e+00 0.0000000000000000e+00
3.5000000000000000e+00 0.0000000000000000e+00 0.0000000000000000e+00
3.6000000000000001e+00 0.0000000000000000e+00 0.0000000000000000e+00
3.7000000000000002e+00 0.0000000000000000e+00 0.0000000000000000e+00
3.8000000000000003e+00 0.0000000000000000e+00 0.0000000000000000e+00
3.9000000000000004e+00 0.0000000000000000e+00 0.0000000000000000e+00
4.0000000000000000e+00 0.0000000000000000e+00 0.0000000000000000e+00
4.1000000000000005e+00 0.0000000000000000e+00 0.0000000000000000e+00
4.2000000000000002e+00 0.0000000000000000e+00 0.0000000000000000e+00
4.2999999999999998e+00 0.0000000000000000e+00 0.0000000000000000e+00
4.4000000000000004e+00 0.0000000000000000e+00 0.0000000000000000e+00
4.5000000000000000e+00 0.0000000000000000e+00 0.0000000000000000e+00
4.6000000000000005e+00 0.0000000000000000e+00 0.0000000000000000e+00
4.7000000000000002e+00 0.0000000000000000e+00 0.0000000000000000e+00
4.8000000000000007e+00 0.0000000000000000e+00 0.0000000000000000e+00
4.9000000000000004e+00 0.0000000000000000e+00 0.0000000000000000e+00
5.0000000000000000e+00 0.0000000000000000e+00 0.0000000000000000e+00
5.1000000000000005e+00 0.0000000000000000e+00 0.0000000000000000e+00
5.2000000000000002e+00 0.0000000000000000e+00 0.0000000000000000e+00
5.3000000000000007e+00 0.0000000000000000e+00 0.0000000000000000e+00
5.4000000000000004e+00 0.0000000000000000e+00 0.0000000000000000e+00
5.5000000000000000e+00 0.0000000000000000e+00 0.0000000000000000e+00
5.6000000000000005e+00 0.0000000000000000e+00 0.0000000000000000e+00
5.7000000000000002e+00 0.0000000000000000e+00 0.0000000000000000e+00
5.8000000000000007e+00 0.0000000000000000e+00 0.0000000000000000e+00
5.9000000000000004e+00 0.0000000000000000e+00 0.0000000000000000e+00
6.0000000000000000e+00 0.0000000000000000e+00 0.0000000000000000e+00
6.1000000000000005e+00 0.0000000000000000e+00 0.0000000000000000e+00
6.2000000000000002e+00 0.0000000000000000e+00 0.0000000000000000e+00
6.3000000000000007e+00 0.0000000000000000e+00 0.0000000000000000e+00
6.4000000000000004e+00 0.0000000000000000e+00 0.0000000000000000e+00
6.5000000000000000e+00 0.0000000000000000e+00 0.0000000000000000e+00
6.6000000000000005e+00 0.0000000000000000e+00 0.0000000000000000e+00
6.7000000000000002e+00 0.0000000000000000e+00 0.0000000000000000e+00
6.8000000000000007e+00 0.0000000000000000e+00 0.0000000000000000e+00
6.9000000000000004e+00 0.0000000000000000e+00 0.0000000000000000e+00
7.0000000000000000e+00 0.0000000000000000e+00 0.0000000000000000e+00
7.1000000000000005e+00 0.0000000000000000e+00 0.0000000000000000e+00
7.2000000000000002e+00 0.0000000000000000e+00 0.0000000000000000e+00
7.3000000000000007e+00 0.0000000000000000e+00 0.0000000000000000e+00
7.4000000000000004e+00 0.0000000000000000e+00 0.0000000000000000e+00
7.5000000000000000e+00 0.0000000000000000e+00 0.0000000000000000e+00
7.6000000000000005e+00 0.0000000000000000e+00 0.0000000000000000e+00
7.7000000000000002e+00 0.0000000000000000e+00 0.0000000000000000e+00
7.8000000000000007e+00 0.0000000000000000e+00 0.0000000000000000e+00
7.9000000000000004e+00 0.0000000000000000e+00 0.0000000000000000e+00
8.0000000000000000e+00 0.0000000000000000e+00 0.0000000000000000e+00
8.0999999999999996e+00 0.0000000000000000e+00 0.0000000000000000e+00
8.2000000000000011e+00 0.0000000000000000e+00 0.0000000000000000e+00
8.3000000000000007e+00 0.0000000000000000e+00 0.0000000000000000e+00
8.4000000000000004e+00 0.0000000000000000e+00 0.0000000000000000e+00
8.5000000000000000e+00 0.0000000000000000e+00 0.0000000000000000e+00
8.5999999999999996e+00 0.0000000000000000e+00 0.0000000000000000e+00
8.7000000000000011e+00 0.0000000000000000e+00 0.0000000000000000e+00
8.8000000000000007e+00 0.0000000000000000e+00 0.0000000000000000e+00
8.9000000000000004e+00 0.0000000000000000e+00 0.0000000000000000e+00
9.0000000000000000e+00 0.0000000000000000e+00 0.0000000000000000e+00
9.0999999999999996e+00 0.0000000000000000e+00 0.0000000000000000e+00
9.2000000000000011e+00 0.0000000000000000e+00 0.0000000000000000e+00
9.3000000000000007e+00 0.0000000000000000e+00 0.0000000000000000e+00
9.4000000000000004e+00 0.0000000000000000e+00 0.0000000000000000e+00
9.5000000000000000e+00 0.0000000000000000e+00 0.0000000000000000e+00
9.6000000000000014e+00 0.0000000000000000e+00 0.0000000000000000e+00
9.7000000000000011e+00 0.0000000000000000e+00 0.0000000000000000e+00
9.8000000000000007e+00 0.0000000000000000e+00 0.0000000000000000e+00
9.9000000000000004e+00 0.0000000000000000e+00 0.0000000000000000e+00
1.0000000000000000e+01 0.0000000000000000e+00 0.0000000000000000e+00

POINT_DATA 101

VECTORS velocity float
3.6574096127459303e+00 0.0000000000000000e+00 0.0000000000000000e+00
3.6576102890416489e+00 0.0000000000000000e+00 0.0000000000000000e+00
3.6578064914099611e+00 0.0000000000000000e+00 0.0000000000000000e+00
3.6579987726422951e+00 0.0000000000000000e+00 0.0000000000000000e+00
3.6581878807599817e+00 0.0000000000000000e+00 0.0000000000000000e+00
3.6583751858468307e+00 0.0000000000000000e+00 0.0000000000000000e+00
3.6585630932585089e+00 0.0000000000000000e+00 0.0000000000000000e+00
3.6587519270538675e+00 0.0000000000000000e+00 0.0000000000000000e+00
3.6589384248079342e+00 0.0000000000000000e+00 0.0000000000000000e+00
3.6591201290956890e+00 0.0000000000000000e+00 0.0000000000000000e+00
3.6592980207889583e+00 0.0000000000000000e+00 0.0000000000000000e+00
3.6594730967965492e+00 0.0000000000000000e+00 0.0000000000000000e+00
3.6596462007575421e+00 0.0000000000000000e+00 0.0000000000000000e+00
3.6598190903043415e+00 0.0000000000000000e+00 0.0000000000000000e+00
3.6599920333043530e+00 0.0000000000000000e+00 0.0000000000000000e+00
3.6601643572910101e+00 0.0000000000000000e+00 0.0000000000000000e+00
3.6603340468873382e+00 0.0000000000000000e+00 0.0000000000000000e+00
3.6604995955906410e+00 0.0000000000000000e+00 0.0000000000000000e+00
3.6606622483625775e+00 0.0000000000000000e+00 0.0000000000000000e+00
3.6608227793064820e+00 0.0000000000000000e+00 0.0000000000000000e+00
3.6609811779191466e+00 0.0000000000000000e+00 0.0000000000000000e+00
3.6611378104302048e+00 0.0000000000000000e+00 0.0000000000000000e+00
3.6612930619910893e+00 0.0000000000000000e+00 0.0000000000000000e+00
3.6614471619685003e+00 0.0000000000000000e+00 0.0000000000000000e+00
3.6616001081374150e+00 0.0000000000000000e+00 0.0000000000000000e+00
3.6617509439847362e+00 0.0000000000000000e+00 0.0000000000000000e+00
3.6618993575871790e+00 0.0000000000000000e+00 0.0000000000000000e+00
3.6620456043532377e+00 0.0000000000000000e+00 0.0000000000000000e+00
3.6621898868943616e+00 0.0000000000000000e+00 0.0000000000000000e+00
3.6623317882574402e+00 0.0000000000000000e+00 0.0000000000000000e+00
3.6624710028119876e+00 0.0000000000000000e+00 0.0000000000000000e+00
3.6626078779862610e+00 0.0000000000000000e+00 0.0000000000000000e+00
3.6627428168072265e+00 0.0000000000000000e+00 0.0000000000000000e+00
3.6628762309001242e+00 0.0000000000000000e+00 0.0000000000000000e+00
3.6630079745437678e+00 0.0000000000000000e+00 0.0000000000000000e+00
3.6631378452522716e+00 0.0000000000000000e+00 0.0000000000000000e+00
3.6632657588574999e+00 0.0000000000000000e+00 0.0000000000000000e+00
3.6633916769167238e+00 0.0000000000000000e+00 0.0000000000000000e+00
3.6635155847328074e+00 0.0000000000000000e+00 0.0000000000000000e+00
3.6636374692887754e+00 0.0000000000000000e+00 0.0000000000000000e+00
3.6637573502197469e+00 0.0000000000000000e+00 0.0000000000000000e+00
3.6638752355392654e+00 0.0000000000000000e+00 0.0000000000000000e+00
3.6639911264211649e+00 0.0000000000000000e+00 0.0000000000000000e+00
3.6641050222330360e+00 0.0000000000000000e+00 0.0000000000000000e+00
3.6642169217489755e+00 0.0000000000000000e+00 0.0000000000000000e+00
3.6643268234863555e+00 0.0000000000000000e+00 0.0000000000000000e+00
3.6644347259748211e+00 0.0000000000000000e+00 0.0000000000000000e+00
3.6645406276285279e+00 0.0000000000000000e+00 0.0000000000000000e+00
3.6646445273988073e+00 0.0000000000000000e+00 0.0000000000000000e+00
3.6647464241436629e+00 0.0000000000000000e+00 0.0000000000000000e+00
3.6648463163723002e+00 0.0000000000000000e+00 0.0000000000000000e+00
3.6649442030171437e+00 0.0000000000000000e+00 0.0000000000000000e+00
3.6650400828620393e+00 0.0000000000000000e+00 0.0000000000000000e+00
3.6651339546488422e+00 0.0000000000000000e+00 0.0000000000000000e+00
3.6652258174000147e+00 0.0000000000000000e+00 0.0000000000000000e+00
3.6653156701892722e+00 0.0000000000000000e+00 0.0000000000000000e+00
3.6654035115246000e+00 0.0000000000000000e+00 0.0000000000000000e+00
3.6654893402744224e+00 0.0000000000000000e+00 0.0000000000000000e+00
3.6655731559102986e+00 0.0000000000000000e+00 0.0000000000000000e+00
3.6656549574440209e+00 0.0000000000000000e+00 0.0000000000000000e+00
3.6657347437939451e+00 0.0000000000000000e+00 0.0000000000000000e+00
3.6658125141399518e+00 0.0000000000000000e+00 0.0000000000000000e+00
3.6658882676212805e+00 0.0000000000000000e+00 0.0000000000000000e+00
3.6659620031254692e+00 0.0000000000000000e+00 0.0000000000000000e+00
3.6660337197262676e+00 0.0000000000000000e+00 0.0000000000000000e+00
3.6661034165941264e+00 0.0000000000000000e+00 0.0000000000000000e+00
3.6661710928486668e+00 0.0000000000000000e+00 0.0000000000000000e+00
3.6662367477453763e+00 0.0000000000000000e+00 0.0000000000000000e+00
3.6663003805502563e+00 0.0000000000000000e+00 0.0000000000000000e+00
3.6663619904731410e+00 0.0000000000000000e+00 0.0000000000000000e+00
3.6664215767483519e+00 0.0000000000000000e+00 0.0000000000000000e+00
3.6664791386550593e+00 0.0000000000000000e+00 0.0000000000000000e+00
3.6665346754748680e+00 0.0000000000000000e+00 0.0000000000000000e+00
3.6665881865318584e+00 0.0000000000000000e+00 0.0000000000000000e+00
3.6666396712144658e+00 0.0000000000000000e+00 0.0000000000000000e+00
3.6666891287770391e+00 0.0000000000000000e+00 0.0000000000000000e+00
3.6667365587717766e+00 0.0000000000000000e+00 0.0000000000000000e+00
3.6667819604348075e+00 0.0000000000000000e+00 0.0000000000000000e+00
3.6668253333253684e+00 0.0000000000000000e+00 0.0000000000000000e+00
3.6668666772624507e+00 0.0000000000000000e+00 0.0000000000000000e+00
3.6669059914066295e+00 0.0000000000000000e+00 0.0000000000000000e+00
3.6669432751990931e+00 0.0000000000000000e+00 0.0000000000000000e+00
3.6669785280888614e+00 0.0000000000000000e+00 0.0000000000000000e+00
3.6670117501843977e+00 0.0000000000000000e+00 0.0000000000000000e+00
3.6670429408432841e+00 0.0000000000000000e+00 0.0000000000000000e+00
3.6670720989371395e+00 0.0000000000000000e+00 0.0000000000000000e+00
3.6670992240638869e+00 0.0000000000000000e+00 0.0000000000000000e+00
3.6671243158482487e+00 0.0000000000000000e+00 0.0000000000000000e+00
3.6671473745417797e+00 0.0000000000000000e+00 0.0000000000000000e+00
3.6671683996339541e+00 0.0000000000000000e+00 0.0000000000000000e+00
3.6671873919597417e+00 0.0000000000000000e+00 0.0000000000000000e+00
3.6672043497639888e+00 0.0000000000000000e+00 0.0000000000000000e+00
3.6672192742463805e+00 0.0000000000000000e+00 0.0000000000000000e+00
3.6672321612919423e+00 0.0000000000000000e+00 0.0000000000000000e+00
3.6672430219011041e+00 0.0000000000000000e+00 0.0000000000000000e+00
3.6672518262506038e+00 0.0000000000000000e+00 0.0000000000000000e+00
3.6672586481990970e+00 0.0000000000000000e+00 0.0000000000000000e+00
3.6672633027810644e+00 0.0000000000000000e+00 0.0000000000000000e+00
3.6672662508109535e+00 0.0000000000000000e+00 0.0000000000000000e+00
3.6672663442369426e+00 0.0000000000000000e+00 0.0000000000000000e+00
3.6672664376629314e+00 0.0000000000000000e+00 0.0000000000000000e+00


SCALARS pressure float
LOOKUP_TABLE default
-1.3532147318990702e+00
-1.3388930424594847e+00
-1.3245713530198995e+00
-1.3102688890060799e+00
-1.2959888025179611e+00
-1.2817341978736196e+00
-1.2675101248221949e+00
-1.2533252883506800e+00
-1.2391808695958848e+00
-1.2250648423478296e+00
-1.2109676289033275e+00
-1.1968920570608539e+00
-1.1828413429687459e+00
-1.1688181461008924e+00
-1.1548283033784028e+00
-1.1408723890563248e+00
-1.1269474769972359e+00
-1.1130458459867303e+00
-1.0991615716189784e+00
-1.0852985197346916e+00
-1.0714590141451019e+00
-1.0576425420913880e+00
-1.0438499013973437e+00
-1.0300819561922250e+00
-1.0163390166178594e+00
-1.0026206621184655e+00
-9.8892305578089645e-01
-9.7524453179459014e-01
-9.6158549989846254e-01
-9.4794622321194988e-01
-9.3432474639187557e-01
-9.2071945614339579e-01
-9.0713108516364171e-01
-8.9356060675090765e-01
-8.8000902399531977e-01
-8.6647535088374950e-01
-8.5295836004025394e-01
-8.3945724376559627e-01
-8.2597137127062648e-01
-8.1250019361921599e-01
-7.9904319641428201e-01
-7.8560001838332316e-01
-7.7217023572938059e-01
-7.5875338988626362e-01
-7.4534901163241141e-01
-7.3195662804218031e-01
-7.1857576466433537e-01
-7.0520594684568016e-01
-6.9184669943131882e-01
-6.7849754911869509e-01
-6.6515802226121468e-01
-6.5182764394456960e-01
-6.3850594068823319e-01
-6.2519243851290951e-01
-6.1188666329510166e-01
-5.9858814190022958e-01
-5.8529640137812122e-01
-5.7201096672491569e-01
-5.5873136417796909e-01
-5.4545712218205855e-01
-5.3218776759587982e-01
-5.1892282692411795e-01
-5.0566182759751521e-01
-4.9240429691805770e-01
-4.7914976129262821e-01
-4.6589774778573911e-01
-4.5264778383989701e-01
-4.3939939674069528e-01
-4.2615211427825456e-01
-4.1290546431883429e-01
-3.9965897455799099e-01
-3.8641217280101076e-01
-3.7316458703962330e-01
-3.5991574530038800e-01
-3.4666517580003731e-01
-3.3341240703241243e-01
-3.2015696705056534e-01
-3.0689838502969202e-01
-2.9363618906505762e-01
-2.8036990844539356e-01
-2.6709907348203482e-01
-2.5382321215819525e-01
-2.4054185345713133e-01
-2.2725452646689431e-01
-2.1396076277687026e-01
-2.0066009136970070e-01
-1.8735203938514564e-01
-1.7403613655438230e-01
-1.6071191288543932e-01
-1.4737890079304031e-01
-1.3403663007741329e-01
-1.2068463546578938e-01
-1.0732244219461069e-01
-9.3949586552837985e-02
-8.0565584797622117e-02
-6.7170010387769014e-02
-5.3762283643583382e-02
-4.0342212697037194e-02
-2.6908640102025719e-02
-1.3462812936682238e-02
0.0000000000000000e+00


SCALARS diameter float
LOOKUP_TABLE default
9.9987735145707235e-01
9.9987936840099900e-01
9.9988053856171033e-01
9.9988222632889034e-01
9.9988404921946716e-01
9.9988586639977850e-01
9.9988663345039286e-01
9.9988638168737898e-01
9.9988646245609636e-01
9.9988807258397017e-01
9.9989017005003999e-01
9.9989226943650011e-01
9.9989432106607123e-01
9.9989570200564193e-01
9.9989620794632172e-01
9.9989655437207425e-01
9.9989702976001327e-01
9.9989868443388652e-01
9.9990044008679235e-01
9.9990205648197072e-01
9.9990366899868588e-01
9.9990525930988228e-01
9.9990654097054987e-01
9.9990761998657018e-01
9.9990835921546484e-01
9.9990922692612938e-01
9.9991038702903545e-01
9.9991151392444544e-01
9.9991264523508105e-01
9.9991381258268519e-01
9.9991535388572528e-01
9.9991689245685422e-01
9.9991841608442955e-01
9.9991969413429738e-01
9.9992087791753315e-01
9.9992206400920502e-01
9.9992325222272072e-01
9.9992444272165704e-01
9.9992563525044875e-01
9.9992683047195619e-01
9.9992802338239706e-01
9.9992921429608383e-01
9.9993040459312221e-01
9.9993159472738091e-01
9.9993278487727466e-01
9.9993397519514027e-01
9.9993516576619101e-01
9.9993635668379555e-01
9.9993754794785783e-01
9.9993873936770195e-01
9.9993993123029323e-01
9.9994112342363517e-01
9.9994231594721683e-01
9.9994350890744366e-01
9.9994470223405096e-01
9.9994589586127658e-01
9.9994708993099446e-01
9.9994828461327667e-01
9.9994947954373425e-01
9.9995067479753674e-01
9.9995187046666467e-01
9.9995306649941718e-01
9.9995426283723776e-01
9.9995545959735077e-01
9.9995665681253199e-01
9.9995785441314333e-01
9.9995905245325334e-01
9.9996025089321994e-01
9.9996144970734557e-01
9.9996264891458708e-01
9.9996384852897890e-01
9.9996504854025292e-01
9.9996624895316744e-01
9.9996744976753560e-01
9.9996865095881105e-01
9.9996985255462800e-01
9.9997105454989710e-01
9.9997225687256741e-01
9.9997345969795437e-01
9.9997466262369750e-01
9.9997586597487453e-01
9.9997706970450240e-01
9.9997827381674331e-01
9.9997947816386423e-01
9.9998068261383655e-01
9.9998188777057118e-01
9.9998309334211044e-01
9.9998429941164613e-01
9.9998550569966260e-01
9.9998671220790447e-01
9.9998791888299821e-01
9.9998912550532326e-01
9.9999033300770868e-01
9.9999154023092474e-01
9.9999274791656323e-01
9.9999395588380502e-01
9.9999516413500877e-01
9.9999637266142183e-01
9.9999758140190664e-01
9.9999879042328799e-01
1.0000000000243188e+00


SCALARS iters float
LOOKUP_TABLE default
4.0000000000000000e+00
4.0000000000000000e+00
4.0000000000000000e+00
4.0000000000000000e+00
4.0000000000000000e+00
4.0000000000000000e+00
4.0000000000000000e+00
4.0000000000000000e+00
4.0000000000000000e+00
4.0000000000000000e+00
4.0000000000000000e+00
4.0000000000000000e+00
4.0000000000000000e+00
4.0000000000000000e+00
4.0000000000000000e+00
4.0000000000000000e+00
4.0000000000000000e+00
4.0000000000000000e+00
4.0000000000000000e+00
4.0000000000000000e+00
4.0000000000000000e+00
4.0000000000000000e+00
4.0000000000000000e+00
4.0000000000000000e+00
4.0000000000000000e+00
4.0000000000000000e+00
4.0000000000000000e+00
4.0000000000000000e+00
4.0000000000000000e+00
4.0000000000000000e+00
4.0000000000000000e+00
4.0000000000000000e+00
4.0000000000000000e+00
4.0000000000000000e+00
4.0000000000000000e+00
4.0000000000000000e+00
4.0000000000000000e+00
4.0000000000000000e+00
4.0000000000000000e+00
4.0000000000000000e+00
4.0000000000000000e+00
4.0000000000000000e+00
4.0000000000000000e+00
4.0000000000000000e+00
4.0000000000000000e+00
4.0000000000000000e+00
4.0000000000000000e+00
4.0000000000000000e+00
4.0000000000000000e+00
4.0000000000000000e+00
4.0000000000000000e+00
4.0000000000000000e+00
4.0000000000000000e+00
4.0000000000000000e+00
4.0000000000000000e+00
4.0000000000000000e+00
4.0000000000000000e+00
4.0000000000000000e+00
4.0000000000000000e+00
4.0000000000000000e+00
4.0000000000000000e+00
4.0000000000000000e+00
4.0000000000000000e+00
4.0000000000000000e+00
4.0000000000000000e+00
4.0000000000000000e+00
4.0000000000000000e+00
4.0000000000000000e+00
4.0000000000000000e+00
4.0000000000000000e+00
4.0000000000000000e+00
4.0000000000000000e+00
4.0000000000000000e+00
4.0000000000000000e+00
4.0000000000000000e+00
4.0000000000000000e+00
4.0000000000000000e+00
4.0000000000000000e+00
4.0000000000000000e+00
4.0000000000000000e+00
4.0000000000000000e+00
4.0000000000000000e+00
4.0000000000000000e+00
4.0000000000000000e+00
4.0000000000000000e+00
4.0000000000000000e+00
4.0000000000000000e+00
4.0000000000000000e+00
4.0000000000000000e+00
4.0000000000000000e+00
4.0000000000000000e+00
4.0000000000000000e+00
4.0000000000000000e+00
4.0000000000000000e+00
4.0000000000000000e+00
4.0000000000000000e+00
4.0000000000000000e+00
4.0000000000000000e+00
4.0000000000000000e+00
4.0000000000000000e+00
4.0000000000000000e+00


