# vtk DataFile Version 2.0

ASCII

DATASET UNSTRUCTURED_GRID

POINTS 101 float

0.0000000000000000e+00 0.0000000000000000e+00 0.0000000000000000e+00
1.0000000000000001e-01 0.0000000000000000e+00 0.0000000000000000e+00
2.0000000000000001e-01 0.0000000000000000e+00 0.0000000000000000e+00
3.0000000000000004e-01 0.0000000000000000e+00 0.0000000000000000e+00
4.0000000000000002e-01 0.0000000000000000e+00 0.0000000000000000e+00
5.0000000000000000e-01 0.0000000000000000e+00 0.0000000000000000e+00
6.0000000000000009e-01 0.0000000000000000e+00 0.0000000000000000e+00
7.0000000000000007e-01 0.0000000000000000e+00 0.0000000000000000e+00
8.0000000000000004e-01 0.0000000000000000e+00 0.0000000000000000e+00
9.0000000000000002e-01 0.0000000000000000e+00 0.0000000000000000e+00
1.0000000000000000e+00 0.0000000000000000e+00 0.0000000000000000e+00
1.1000000000000001e+00 0.0000000000000000e+00 0.0000000000000000e+00
1.2000000000000002e+00 0.0000000000000000e+00 0.0000000000000000e+00
1.3000000000000000e+00 0.0000000000000000e+00 0.0000000000000000e+00
1.4000000000000001e+00 0.0000000000000000e+00 0.0000000000000000e+00
1.5000000000000000e+00 0.0000000000000000e+00 0.0000000000000000e+00
1.6000000000000001e+00 0.0000000000000000e+00 0.0000000000000000e+00
1.7000000000000002e+00 0.0000000000000000e+00 0.0000000000000000e+00
1.8000000000000000e+00 0.0000000000000000e+00 0.0000000000000000e+00
1.9000000000000001e+00 0.0000000000000000e+00 0.0000000000000000e+00
2.0000000000000000e+00 0.0000000000000000e+00 0.0000000000000000e+00
2.1000000000000001e+00 0.0000000000000000e+00 0.0000000000000000e+00
2.2000000000000002e+00 0.0000000000000000e+00 0.0000000000000000e+00
2.3000000000000003e+00 0.0000000000000000e+00 0.0000000000000000e+00
2.4000000000000004e+00 0.0000000000000000e+00 0.0000000000000000e+00
2.5000000000000000e+00 0.0000000000000000e+00 0.0000000000000000e+00
2.6000000000000001e+00 0.0000000000000000e+00 0.0000000000000000e+00
2.7000000000000002e+00 0.0000000000000000e+00 0.0000000000000000e+00
2.8000000000000003e+00 0.0000000000000000e+00 0.0000000000000000e+00
2.9000000000000004e+00 0.0000000000000000e+00 0.0000000000000000e+00
3.0000000000000000e+00 0.0000000000000000e+00 0.0000000000000000e+00
3.1000000000000001e+00 0.0000000000000000e+00 0.0000000000000000e+00
3.2000000000000002e+00 0.0000000000000000e+00 0.0000000000000000e+00
3.3000000000000003e+00 0.0000000000000000e+00 0.0000000000000000e+00
3.4000000000000004e+00 0.0000000000000000e+00 0.0000000000000000e+00
3.5000000000000000e+00 0.0000000000000000e+00 0.0000000000000000e+00
3.6000000000000001e+00 0.0000000000000000e+00 0.0000000000000000e+00
3.7000000000000002e+00 0.0000000000000000e+00 0.0000000000000000e+00
3.8000000000000003e+00 0.0000000000000000e+00 0.0000000000000000e+00
3.9000000000000004e+00 0.0000000000000000e+00 0.0000000000000000e+00
4.0000000000000000e+00 0.0000000000000000e+00 0.0000000000000000e+00
4.1000000000000005e+00 0.0000000000000000e+00 0.0000000000000000e+00
4.2000000000000002e+00 0.0000000000000000e+00 0.0000000000000000e+00
4.2999999999999998e+00 0.0000000000000000e+00 0.0000000000000000e+00
4.4000000000000004e+00 0.0000000000000000e+00 0.0000000000000000e+00
4.5000000000000000e+00 0.0000000000000000e+00 0.0000000000000000e+00
4.6000000000000005e+00 0.0000000000000000e+00 0.0000000000000000e+00
4.7000000000000002e+00 0.0000000000000000e+00 0.0000000000000000e+00
4.8000000000000007e+00 0.0000000000000000e+00 0.0000000000000000e+00
4.9000000000000004e+00 0.0000000000000000e+00 0.0000000000000000e+00
5.0000000000000000e+00 0.0000000000000000e+00 0.0000000000000000e+00
5.1000000000000005e+00 0.0000000000000000e+00 0.0000000000000000e+00
5.2000000000000002e+00 0.0000000000000000e+00 0.0000000000000000e+00
5.3000000000000007e+00 0.0000000000000000e+00 0.0000000000000000e+00
5.4000000000000004e+00 0.0000000000000000e+00 0.0000000000000000e+00
5.5000000000000000e+00 0.0000000000000000e+00 0.0000000000000000e+00
5.6000000000000005e+00 0.0000000000000000e+00 0.0000000000000000e+00
5.7000000000000002e+00 0.0000000000000000e+00 0.0000000000000000e+00
5.8000000000000007e+00 0.0000000000000000e+00 0.0000000000000000e+00
5.9000000000000004e+00 0.0000000000000000e+00 0.0000000000000000e+00
6.0000000000000000e+00 0.0000000000000000e+00 0.0000000000000000e+00
6.1000000000000005e+00 0.0000000000000000e+00 0.0000000000000000e+00
6.2000000000000002e+00 0.0000000000000000e+00 0.0000000000000000e+00
6.3000000000000007e+00 0.0000000000000000e+00 0.0000000000000000e+00
6.4000000000000004e+00 0.0000000000000000e+00 0.0000000000000000e+00
6.5000000000000000e+00 0.0000000000000000e+00 0.0000000000000000e+00
6.6000000000000005e+00 0.0000000000000000e+00 0.0000000000000000e+00
6.7000000000000002e+00 0.0000000000000000e+00 0.0000000000000000e+00
6.8000000000000007e+00 0.0000000000000000e+00 0.0000000000000000e+00
6.9000000000000004e+00 0.0000000000000000e+00 0.0000000000000000e+00
7.0000000000000000e+00 0.0000000000000000e+00 0.0000000000000000e+00
7.1000000000000005e+00 0.0000000000000000e+00 0.0000000000000000e+00
7.2000000000000002e+00 0.0000000000000000e+00 0.0000000000000000e+00
7.3000000000000007e+00 0.0000000000000000e+00 0.0000000000000000e+00
7.4000000000000004e+00 0.0000000000000000e+00 0.0000000000000000e+00
7.5000000000000000e+00 0.0000000000000000e+00 0.0000000000000000e+00
7.6000000000000005e+00 0.0000000000000000e+00 0.0000000000000000e+00
7.7000000000000002e+00 0.0000000000000000e+00 0.0000000000000000e+00
7.8000000000000007e+00 0.0000000000000000e+00 0.0000000000000000e+00
7.9000000000000004e+00 0.0000000000000000e+00 0.0000000000000000e+00
8.0000000000000000e+00 0.0000000000000000e+00 0.0000000000000000e+00
8.0999999999999996e+00 0.0000000000000000e+00 0.0000000000000000e+00
8.2000000000000011e+00 0.0000000000000000e+00 0.0000000000000000e+00
8.3000000000000007e+00 0.0000000000000000e+00 0.0000000000000000e+00
8.4000000000000004e+00 0.0000000000000000e+00 0.0000000000000000e+00
8.5000000000000000e+00 0.0000000000000000e+00 0.0000000000000000e+00
8.5999999999999996e+00 0.0000000000000000e+00 0.0000000000000000e+00
8.7000000000000011e+00 0.0000000000000000e+00 0.0000000000000000e+00
8.8000000000000007e+00 0.0000000000000000e+00 0.0000000000000000e+00
8.9000000000000004e+00 0.0000000000000000e+00 0.0000000000000000e+00
9.0000000000000000e+00 0.0000000000000000e+00 0.0000000000000000e+00
9.0999999999999996e+00 0.0000000000000000e+00 0.0000000000000000e+00
9.2000000000000011e+00 0.0000000000000000e+00 0.0000000000000000e+00
9.3000000000000007e+00 0.0000000000000000e+00 0.0000000000000000e+00
9.4000000000000004e+00 0.0000000000000000e+00 0.0000000000000000e+00
9.5000000000000000e+00 0.0000000000000000e+00 0.0000000000000000e+00
9.6000000000000014e+00 0.0000000000000000e+00 0.0000000000000000e+00
9.7000000000000011e+00 0.0000000000000000e+00 0.0000000000000000e+00
9.8000000000000007e+00 0.0000000000000000e+00 0.0000000000000000e+00
9.9000000000000004e+00 0.0000000000000000e+00 0.0000000000000000e+00
1.0000000000000000e+01 0.0000000000000000e+00 0.0000000000000000e+00

POINT_DATA 101

VECTORS velocity float
3.8646974315953218e+00 0.0000000000000000e+00 0.0000000000000000e+00
3.8652311042799035e+00 0.0000000000000000e+00 0.0000000000000000e+00
3.8657577056330155e+00 0.0000000000000000e+00 0.0000000000000000e+00
3.8662768679074095e+00 0.0000000000000000e+00 0.0000000000000000e+00
3.8667891024128127e+00 0.0000000000000000e+00 0.0000000000000000e+00
3.8672968509971151e+00 0.0000000000000000e+00 0.0000000000000000e+00
3.8678039232580632e+00 0.0000000000000000e+00 0.0000000000000000e+00
3.8683090456180653e+00 0.0000000000000000e+00 0.0000000000000000e+00
3.8688090756676430e+00 0.0000000000000000e+00 0.0000000000000000e+00
3.8693037248359361e+00 0.0000000000000000e+00 0.0000000000000000e+00
3.8697932970030573e+00 0.0000000000000000e+00 0.0000000000000000e+00
3.8702777818830474e+00 0.0000000000000000e+00 0.0000000000000000e+00
3.8707586866229837e+00 0.0000000000000000e+00 0.0000000000000000e+00
3.8712386154036658e+00 0.0000000000000000e+00 0.0000000000000000e+00
3.8717168224276119e+00 0.0000000000000000e+00 0.0000000000000000e+00
3.8721920288297147e+00 0.0000000000000000e+00 0.0000000000000000e+00
3.8726599666112760e+00 0.0000000000000000e+00 0.0000000000000000e+00
3.8731180367545828e+00 0.0000000000000000e+00 0.0000000000000000e+00
3.8735704287222439e+00 0.0000000000000000e+00 0.0000000000000000e+00
3.8740194394660707e+00 0.0000000000000000e+00 0.0000000000000000e+00
3.8744641360694057e+00 0.0000000000000000e+00 0.0000000000000000e+00
3.8749036930296037e+00 0.0000000000000000e+00 0.0000000000000000e+00
3.8753378174381075e+00 0.0000000000000000e+00 0.0000000000000000e+00
3.8757661713439835e+00 0.0000000000000000e+00 0.0000000000000000e+00
3.8761913095191467e+00 0.0000000000000000e+00 0.0000000000000000e+00
3.8766130232031473e+00 0.0000000000000000e+00 0.0000000000000000e+00
3.8770285386226231e+00 0.0000000000000000e+00 0.0000000000000000e+00
3.8774385767906643e+00 0.0000000000000000e+00 0.0000000000000000e+00
3.8778435055427320e+00 0.0000000000000000e+00 0.0000000000000000e+00
3.8782429885538412e+00 0.0000000000000000e+00 0.0000000000000000e+00
3.8786367688875516e+00 0.0000000000000000e+00 0.0000000000000000e+00
3.8790251843375954e+00 0.0000000000000000e+00 0.0000000000000000e+00
3.8794088136771352e+00 0.0000000000000000e+00 0.0000000000000000e+00
3.8797882130293977e+00 0.0000000000000000e+00 0.0000000000000000e+00
3.8801631044518801e+00 0.0000000000000000e+00 0.0000000000000000e+00
3.8805332098508534e+00 0.0000000000000000e+00 0.0000000000000000e+00
3.8808984232845205e+00 0.0000000000000000e+00 0.0000000000000000e+00
3.8812586779659606e+00 0.0000000000000000e+00 0.0000000000000000e+00
3.8816139857684537e+00 0.0000000000000000e+00 0.0000000000000000e+00
3.8819642121795526e+00 0.0000000000000000e+00 0.0000000000000000e+00
3.8823092207725134e+00 0.0000000000000000e+00 0.0000000000000000e+00
3.8826491212417191e+00 0.0000000000000000e+00 0.0000000000000000e+00
3.8829839484426971e+00 0.0000000000000000e+00 0.0000000000000000e+00
3.8833137143159902e+00 0.0000000000000000e+00 0.0000000000000000e+00
3.8836384206990906e+00 0.0000000000000000e+00 0.0000000000000000e+00
3.8839580639590863e+00 0.0000000000000000e+00 0.0000000000000000e+00
3.8842726391769844e+00 0.0000000000000000e+00 0.0000000000000000e+00
3.8845821413562298e+00 0.0000000000000000e+00 0.0000000000000000e+00
3.8848865654824123e+00 0.0000000000000000e+00 0.0000000000000000e+00
3.8851859059771523e+00 0.0000000000000000e+00 0.0000000000000000e+00
3.8854801567549662e+00 0.0000000000000000e+00 0.0000000000000000e+00
3.8857693125895452e+00 0.0000000000000000e+00 0.0000000000000000e+00
3.8860533677568285e+00 0.0000000000000000e+00 0.0000000000000000e+00
3.8863323168033741e+00 0.0000000000000000e+00 0.0000000000000000e+00
3.8866061546988351e+00 0.0000000000000000e+00 0.0000000000000000e+00
3.8868748763760883e+00 0.0000000000000000e+00 0.0000000000000000e+00
3.8871384764187256e+00 0.0000000000000000e+00 0.0000000000000000e+00
3.8873969497618321e+00 0.0000000000000000e+00 0.0000000000000000e+00
3.8876502919155205e+00 0.0000000000000000e+00 0.0000000000000000e+00
3.8878984979774995e+00 0.0000000000000000e+00 0.0000000000000000e+00
3.8881415630765903e+00 0.0000000000000000e+00 0.0000000000000000e+00
3.8883794831213883e+00 0.0000000000000000e+00 0.0000000000000000e+00
3.8886122539009111e+00 0.0000000000000000e+00 0.0000000000000000e+00
3.8888398706789338e+00 0.0000000000000000e+00 0.0000000000000000e+00
3.8890623290683419e+00 0.0000000000000000e+00 0.0000000000000000e+00
3.8892796248759129e+00 0.0000000000000000e+00 0.0000000000000000e+00
3.8894917539709133e+00 0.0000000000000000e+00 0.0000000000000000e+00
3.8896987124238285e+00 0.0000000000000000e+00 0.0000000000000000e+00
3.8899004963852133e+00 0.0000000000000000e+00 0.0000000000000000e+00
3.8900971020621475e+00 0.0000000000000000e+00 0.0000000000000000e+00
3.8902885258018634e+00 0.0000000000000000e+00 0.0000000000000000e+00
3.8904747641656350e+00 0.0000000000000000e+00 0.0000000000000000e+00
3.8906558138157945e+00 0.0000000000000000e+00 0.0000000000000000e+00
3.8908316712882951e+00 0.0000000000000000e+00 0.0000000000000000e+00
3.8910023334379935e+00 0.0000000000000000e+00 0.0000000000000000e+00
3.8911677967923648e+00 0.0000000000000000e+00 0.0000000000000000e+00
3.8913280583122889e+00 0.0000000000000000e+00 0.0000000000000000e+00
3.8914831148570261e+00 0.0000000000000000e+00 0.0000000000000000e+00
3.8916329638174929e+00 0.0000000000000000e+00 0.0000000000000000e+00
3.8917776030822941e+00 0.0000000000000000e+00 0.0000000000000000e+00
3.8919170295181647e+00 0.0000000000000000e+00 0.0000000000000000e+00
3.8920512405668037e+00 0.0000000000000000e+00 0.0000000000000000e+00
3.8921802336228217e+00 0.0000000000000000e+00 0.0000000000000000e+00
3.8923040063915364e+00 0.0000000000000000e+00 0.0000000000000000e+00
3.8924225563425914e+00 0.0000000000000000e+00 0.0000000000000000e+00
3.8925358818472304e+00 0.0000000000000000e+00 0.0000000000000000e+00
3.8926439805534767e+00 0.0000000000000000e+00 0.0000000000000000e+00
3.8927468495134319e+00 0.0000000000000000e+00 0.0000000000000000e+00
3.8928444877471633e+00 0.0000000000000000e+00 0.0000000000000000e+00
3.8929368926505106e+00 0.0000000000000000e+00 0.0000000000000000e+00
3.8930240647127783e+00 0.0000000000000000e+00 0.0000000000000000e+00
3.8931060006871667e+00 0.0000000000000000e+00 0.0000000000000000e+00
3.8931827029545283e+00 0.0000000000000000e+00 0.0000000000000000e+00
3.8932541576569988e+00 0.0000000000000000e+00 0.0000000000000000e+00
3.8933203950422981e+00 0.0000000000000000e+00 0.0000000000000000e+00
3.8933813350859885e+00 0.0000000000000000e+00 0.0000000000000000e+00
3.8934371730266206e+00 0.0000000000000000e+00 0.0000000000000000e+00
3.8934874200216272e+00 0.0000000000000000e+00 0.0000000000000000e+00
3.8935332835629648e+00 0.0000000000000000e+00 0.0000000000000000e+00
3.8935717775336927e+00 0.0000000000000000e+00 0.0000000000000000e+00
3.8936102715044205e+00 0.0000000000000000e+00 0.0000000000000000e+00


SCALARS pressure float
LOOKUP_TABLE default
7.6630008015892237e+00
7.5857965744945863e+00
7.5085923473999490e+00
7.4313724313851255e+00
7.3541382666884507e+00
7.2768906158297799e+00
7.1996238739870675e+00
7.1223272416995993e+00
7.0450091010105442e+00
6.9676867425915239e+00
6.8903658129594962e+00
6.8130481483308936e+00
6.7357359291337673e+00
6.6584254815867085e+00
6.5811077707324133e+00
6.5037852071388675e+00
6.4264625925903482e+00
6.3491556308590242e+00
6.2718753923164332e+00
6.1946078455750389e+00
6.1173439741855589e+00
6.0400867823092943e+00
5.9628395335705724e+00
5.8856035292910782e+00
5.8083804515475714e+00
5.7311607757053862e+00
5.6539458677369243e+00
5.5767470069566523e+00
5.4995628900240590e+00
5.4223926347388369e+00
5.3452379301768866e+00
5.2680999357017937e+00
5.1909776014259492e+00
5.1138686100404254e+00
5.0367707401564452e+00
4.9596850809296571e+00
4.8826129928199409e+00
4.8055552697648496e+00
4.7285125569552173e+00
4.6514852063491983e+00
4.5744741258458816e+00
4.4974803385339142e+00
4.4205039453558044e+00
4.3435452668654477e+00
4.2666047145648340e+00
4.1896827376832917e+00
4.1127798037776140e+00
4.0358963836396491e+00
3.9590329447423307e+00
3.8821899505361754e+00
3.8053678623790756e+00
3.7285671397842917e+00
3.6517882355570213e+00
3.5750316004688689e+00
3.4982976806507615e+00
3.4215869168233684e+00
3.3448997462688759e+00
3.2682366037895729e+00
3.1915979194491393e+00
3.1149841175855455e+00
3.0383956204864209e+00
2.9618328469298465e+00
2.8852962093344963e+00
2.8087861167433874e+00
2.7323029766811349e+00
2.6558471921237996e+00
2.5794191619767024e+00
2.5030192815988310e+00
2.4266479423901792e+00
2.3503055322533086e+00
2.2739924357517558e+00
2.1977090338101979e+00
2.1214557034079768e+00
2.0452328178959633e+00
1.9690407478024230e+00
1.8928798593889684e+00
1.8167505168224758e+00
1.7406530799602435e+00
1.6645879058877147e+00
1.5885553470286187e+00
1.5125557504059162e+00
1.4365894636238832e+00
1.3606568296728510e+00
1.2847581885249395e+00
1.2088938762791901e+00
1.1330642267769897e+00
1.0572695683567299e+00
9.8151022863923809e-01
9.0578653652691066e-01
8.3009880912773515e-01
7.5444736673809154e-01
6.7883251521035270e-01
6.0325457263681270e-01
5.2771383286451823e-01
4.5221064853170057e-01
3.7674520468896044e-01
3.0131809345453692e-01
2.2592888610947007e-01
1.5057967177366230e-01
7.5266311134973035e-02
0.0000000000000000e+00


SCALARS diameter float
LOOKUP_TABLE default
1.0006844389530245e+00
1.0006786795407678e+00
1.0006720745128139e+00
1.0006662198719400e+00
1.0006609815162151e+00
1.0006558015334868e+00
1.0006491339973831e+00
1.0006416129538247e+00
1.0006351212304729e+00
1.0006290356999319e+00
1.0006231467349611e+00
1.0006173096812940e+00
1.0006112947455412e+00
1.0006038503028016e+00
1.0005953961792442e+00
1.0005868550796193e+00
1.0005789046193208e+00
1.0005733697000285e+00
1.0005675038796076e+00
1.0005605710028755e+00
1.0005534463801171e+00
1.0005466087491699e+00
1.0005398648330357e+00
1.0005333520484929e+00
1.0005262594457409e+00
1.0005179818658185e+00
1.0005109298044699e+00
1.0005038962893191e+00
1.0004968709184838e+00
1.0004898840544314e+00
1.0004832471324738e+00
1.0004766159268743e+00
1.0004699306282989e+00
1.0004628750381550e+00
1.0004557101831992e+00
1.0004485524561231e+00
1.0004414016960068e+00
1.0004342578387750e+00
1.0004271209868529e+00
1.0004199979238884e+00
1.0004129880975150e+00
1.0004059824522156e+00
1.0003989817979426e+00
1.0003919862408630e+00
1.0003849957815998e+00
1.0003780106778668e+00
1.0003710312123670e+00
1.0003640568531778e+00
1.0003570876363832e+00
1.0003501231971024e+00
1.0003431639861409e+00
1.0003362095991708e+00
1.0003292600801459e+00
1.0003223154720546e+00
1.0003153755378458e+00
1.0003084402176421e+00
1.0003015095407195e+00
1.0002945835605208e+00
1.0002876619369738e+00
1.0002807446849651e+00
1.0002738318711542e+00
1.0002669232456873e+00
1.0002600185624106e+00
1.0002531180187229e+00
1.0002462215677463e+00
1.0002393290887841e+00
1.0002324405504064e+00
1.0002255558530546e+00
1.0002186749069439e+00
1.0002117976633611e+00
1.0002049240395308e+00
1.0001980539288169e+00
1.0001911871934699e+00
1.0001843238199470e+00
1.0001774637164367e+00
1.0001706068237848e+00
1.0001637532235343e+00
1.0001569026294188e+00
1.0001500552141489e+00
1.0001432102867074e+00
1.0001363682911741e+00
1.0001295290020094e+00
1.0001226924129203e+00
1.0001158584079748e+00
1.0001090269641824e+00
1.0001021979721709e+00
1.0000953710755305e+00
1.0000885469865251e+00
1.0000817250163627e+00
1.0000749052381943e+00
1.0000680874948695e+00
1.0000612708644074e+00
1.0000544566032616e+00
1.0000476439193291e+00
1.0000408331010024e+00
1.0000340237782186e+00
1.0000272161086121e+00
1.0000204099360850e+00
1.0000136051653958e+00
1.0000068013207961e+00
9.9999999817425500e-01


SCALARS iters float
LOOKUP_TABLE default
3.0000000000000000e+00
3.0000000000000000e+00
3.0000000000000000e+00
3.0000000000000000e+00
3.0000000000000000e+00
3.0000000000000000e+00
3.0000000000000000e+00
3.0000000000000000e+00
3.0000000000000000e+00
3.0000000000000000e+00
3.0000000000000000e+00
3.0000000000000000e+00
3.0000000000000000e+00
3.0000000000000000e+00
3.0000000000000000e+00
3.0000000000000000e+00
3.0000000000000000e+00
3.0000000000000000e+00
3.0000000000000000e+00
3.0000000000000000e+00
3.0000000000000000e+00
3.0000000000000000e+00
3.0000000000000000e+00
3.0000000000000000e+00
3.0000000000000000e+00
3.0000000000000000e+00
3.0000000000000000e+00
3.0000000000000000e+00
3.0000000000000000e+00
3.0000000000000000e+00
3.0000000000000000e+00
3.0000000000000000e+00
3.0000000000000000e+00
3.0000000000000000e+00
3.0000000000000000e+00
3.0000000000000000e+00
3.0000000000000000e+00
3.0000000000000000e+00
3.0000000000000000e+00
3.0000000000000000e+00
3.0000000000000000e+00
3.0000000000000000e+00
3.0000000000000000e+00
3.0000000000000000e+00
3.0000000000000000e+00
3.0000000000000000e+00
3.0000000000000000e+00
3.0000000000000000e+00
3.0000000000000000e+00
3.0000000000000000e+00
3.0000000000000000e+00
3.0000000000000000e+00
3.0000000000000000e+00
3.0000000000000000e+00
3.0000000000000000e+00
3.0000000000000000e+00
3.0000000000000000e+00
3.0000000000000000e+00
3.0000000000000000e+00
3.0000000000000000e+00
3.0000000000000000e+00
3.0000000000000000e+00
3.0000000000000000e+00
3.0000000000000000e+00
3.0000000000000000e+00
3.0000000000000000e+00
3.0000000000000000e+00
3.0000000000000000e+00
3.0000000000000000e+00
3.0000000000000000e+00
3.0000000000000000e+00
3.0000000000000000e+00
3.0000000000000000e+00
3.0000000000000000e+00
3.0000000000000000e+00
3.0000000000000000e+00
3.0000000000000000e+00
3.0000000000000000e+00
3.0000000000000000e+00
3.0000000000000000e+00
3.0000000000000000e+00
3.0000000000000000e+00
3.0000000000000000e+00
3.0000000000000000e+00
3.0000000000000000e+00
3.0000000000000000e+00
3.0000000000000000e+00
3.0000000000000000e+00
3.0000000000000000e+00
3.0000000000000000e+00
3.0000000000000000e+00
3.0000000000000000e+00
3.0000000000000000e+00
3.0000000000000000e+00
3.0000000000000000e+00
3.0000000000000000e+00
3.0000000000000000e+00
3.0000000000000000e+00
3.0000000000000000e+00
3.0000000000000000e+00
3.0000000000000000e+00


