# vtk DataFile Version 2.0

ASCII

DATASET UNSTRUCTURED_GRID

POINTS 101 float

0.0000000000000000e+00 0.0000000000000000e+00 0.0000000000000000e+00
1.0000000000000001e-01 0.0000000000000000e+00 0.0000000000000000e+00
2.0000000000000001e-01 0.0000000000000000e+00 0.0000000000000000e+00
3.0000000000000004e-01 0.0000000000000000e+00 0.0000000000000000e+00
4.0000000000000002e-01 0.0000000000000000e+00 0.0000000000000000e+00
5.0000000000000000e-01 0.0000000000000000e+00 0.0000000000000000e+00
6.0000000000000009e-01 0.0000000000000000e+00 0.0000000000000000e+00
7.0000000000000007e-01 0.0000000000000000e+00 0.0000000000000000e+00
8.0000000000000004e-01 0.0000000000000000e+00 0.0000000000000000e+00
9.0000000000000002e-01 0.0000000000000000e+00 0.0000000000000000e+00
1.0000000000000000e+00 0.0000000000000000e+00 0.0000000000000000e+00
1.1000000000000001e+00 0.0000000000000000e+00 0.0000000000000000e+00
1.2000000000000002e+00 0.0000000000000000e+00 0.0000000000000000e+00
1.3000000000000000e+00 0.0000000000000000e+00 0.0000000000000000e+00
1.4000000000000001e+00 0.0000000000000000e+00 0.0000000000000000e+00
1.5000000000000000e+00 0.0000000000000000e+00 0.0000000000000000e+00
1.6000000000000001e+00 0.0000000000000000e+00 0.0000000000000000e+00
1.7000000000000002e+00 0.0000000000000000e+00 0.0000000000000000e+00
1.8000000000000000e+00 0.0000000000000000e+00 0.0000000000000000e+00
1.9000000000000001e+00 0.0000000000000000e+00 0.0000000000000000e+00
2.0000000000000000e+00 0.0000000000000000e+00 0.0000000000000000e+00
2.1000000000000001e+00 0.0000000000000000e+00 0.0000000000000000e+00
2.2000000000000002e+00 0.0000000000000000e+00 0.0000000000000000e+00
2.3000000000000003e+00 0.0000000000000000e+00 0.0000000000000000e+00
2.4000000000000004e+00 0.0000000000000000e+00 0.0000000000000000e+00
2.5000000000000000e+00 0.0000000000000000e+00 0.0000000000000000e+00
2.6000000000000001e+00 0.0000000000000000e+00 0.0000000000000000e+00
2.7000000000000002e+00 0.0000000000000000e+00 0.0000000000000000e+00
2.8000000000000003e+00 0.0000000000000000e+00 0.0000000000000000e+00
2.9000000000000004e+00 0.0000000000000000e+00 0.0000000000000000e+00
3.0000000000000000e+00 0.0000000000000000e+00 0.0000000000000000e+00
3.1000000000000001e+00 0.0000000000000000e+00 0.0000000000000000e+00
3.2000000000000002e+00 0.0000000000000000e+00 0.0000000000000000e+00
3.3000000000000003e+00 0.0000000000000000e+00 0.0000000000000000e+00
3.4000000000000004e+00 0.0000000000000000e+00 0.0000000000000000e+00
3.5000000000000000e+00 0.0000000000000000e+00 0.0000000000000000e+00
3.6000000000000001e+00 0.0000000000000000e+00 0.0000000000000000e+00
3.7000000000000002e+00 0.0000000000000000e+00 0.0000000000000000e+00
3.8000000000000003e+00 0.0000000000000000e+00 0.0000000000000000e+00
3.9000000000000004e+00 0.0000000000000000e+00 0.0000000000000000e+00
4.0000000000000000e+00 0.0000000000000000e+00 0.0000000000000000e+00
4.1000000000000005e+00 0.0000000000000000e+00 0.0000000000000000e+00
4.2000000000000002e+00 0.0000000000000000e+00 0.0000000000000000e+00
4.2999999999999998e+00 0.0000000000000000e+00 0.0000000000000000e+00
4.4000000000000004e+00 0.0000000000000000e+00 0.0000000000000000e+00
4.5000000000000000e+00 0.0000000000000000e+00 0.0000000000000000e+00
4.6000000000000005e+00 0.0000000000000000e+00 0.0000000000000000e+00
4.7000000000000002e+00 0.0000000000000000e+00 0.0000000000000000e+00
4.8000000000000007e+00 0.0000000000000000e+00 0.0000000000000000e+00
4.9000000000000004e+00 0.0000000000000000e+00 0.0000000000000000e+00
5.0000000000000000e+00 0.0000000000000000e+00 0.0000000000000000e+00
5.1000000000000005e+00 0.0000000000000000e+00 0.0000000000000000e+00
5.2000000000000002e+00 0.0000000000000000e+00 0.0000000000000000e+00
5.3000000000000007e+00 0.0000000000000000e+00 0.0000000000000000e+00
5.4000000000000004e+00 0.0000000000000000e+00 0.0000000000000000e+00
5.5000000000000000e+00 0.0000000000000000e+00 0.0000000000000000e+00
5.6000000000000005e+00 0.0000000000000000e+00 0.0000000000000000e+00
5.7000000000000002e+00 0.0000000000000000e+00 0.0000000000000000e+00
5.8000000000000007e+00 0.0000000000000000e+00 0.0000000000000000e+00
5.9000000000000004e+00 0.0000000000000000e+00 0.0000000000000000e+00
6.0000000000000000e+00 0.0000000000000000e+00 0.0000000000000000e+00
6.1000000000000005e+00 0.0000000000000000e+00 0.0000000000000000e+00
6.2000000000000002e+00 0.0000000000000000e+00 0.0000000000000000e+00
6.3000000000000007e+00 0.0000000000000000e+00 0.0000000000000000e+00
6.4000000000000004e+00 0.0000000000000000e+00 0.0000000000000000e+00
6.5000000000000000e+00 0.0000000000000000e+00 0.0000000000000000e+00
6.6000000000000005e+00 0.0000000000000000e+00 0.0000000000000000e+00
6.7000000000000002e+00 0.0000000000000000e+00 0.0000000000000000e+00
6.8000000000000007e+00 0.0000000000000000e+00 0.0000000000000000e+00
6.9000000000000004e+00 0.0000000000000000e+00 0.0000000000000000e+00
7.0000000000000000e+00 0.0000000000000000e+00 0.0000000000000000e+00
7.1000000000000005e+00 0.0000000000000000e+00 0.0000000000000000e+00
7.2000000000000002e+00 0.0000000000000000e+00 0.0000000000000000e+00
7.3000000000000007e+00 0.0000000000000000e+00 0.0000000000000000e+00
7.4000000000000004e+00 0.0000000000000000e+00 0.0000000000000000e+00
7.5000000000000000e+00 0.0000000000000000e+00 0.0000000000000000e+00
7.6000000000000005e+00 0.0000000000000000e+00 0.0000000000000000e+00
7.7000000000000002e+00 0.0000000000000000e+00 0.0000000000000000e+00
7.8000000000000007e+00 0.0000000000000000e+00 0.0000000000000000e+00
7.9000000000000004e+00 0.0000000000000000e+00 0.0000000000000000e+00
8.0000000000000000e+00 0.0000000000000000e+00 0.0000000000000000e+00
8.0999999999999996e+00 0.0000000000000000e+00 0.0000000000000000e+00
8.2000000000000011e+00 0.0000000000000000e+00 0.0000000000000000e+00
8.3000000000000007e+00 0.0000000000000000e+00 0.0000000000000000e+00
8.4000000000000004e+00 0.0000000000000000e+00 0.0000000000000000e+00
8.5000000000000000e+00 0.0000000000000000e+00 0.0000000000000000e+00
8.5999999999999996e+00 0.0000000000000000e+00 0.0000000000000000e+00
8.7000000000000011e+00 0.0000000000000000e+00 0.0000000000000000e+00
8.8000000000000007e+00 0.0000000000000000e+00 0.0000000000000000e+00
8.9000000000000004e+00 0.0000000000000000e+00 0.0000000000000000e+00
9.0000000000000000e+00 0.0000000000000000e+00 0.0000000000000000e+00
9.0999999999999996e+00 0.0000000000000000e+00 0.0000000000000000e+00
9.2000000000000011e+00 0.0000000000000000e+00 0.0000000000000000e+00
9.3000000000000007e+00 0.0000000000000000e+00 0.0000000000000000e+00
9.4000000000000004e+00 0.0000000000000000e+00 0.0000000000000000e+00
9.5000000000000000e+00 0.0000000000000000e+00 0.0000000000000000e+00
9.6000000000000014e+00 0.0000000000000000e+00 0.0000000000000000e+00
9.7000000000000011e+00 0.0000000000000000e+00 0.0000000000000000e+00
9.8000000000000007e+00 0.0000000000000000e+00 0.0000000000000000e+00
9.9000000000000004e+00 0.0000000000000000e+00 0.0000000000000000e+00
1.0000000000000000e+01 0.0000000000000000e+00 0.0000000000000000e+00

POINT_DATA 101

VECTORS velocity float
5.2024685339605776e+00 0.0000000000000000e+00 0.0000000000000000e+00
5.2035111968436656e+00 0.0000000000000000e+00 0.0000000000000000e+00
5.2045360558993030e+00 0.0000000000000000e+00 0.0000000000000000e+00
5.2055452019908275e+00 0.0000000000000000e+00 0.0000000000000000e+00
5.2065398892109132e+00 0.0000000000000000e+00 0.0000000000000000e+00
5.2075229858835437e+00 0.0000000000000000e+00 0.0000000000000000e+00
5.2084990968593585e+00 0.0000000000000000e+00 0.0000000000000000e+00
5.2094674641444865e+00 0.0000000000000000e+00 0.0000000000000000e+00
5.2104237642472260e+00 0.0000000000000000e+00 0.0000000000000000e+00
5.2113660749564685e+00 0.0000000000000000e+00 0.0000000000000000e+00
5.2122956120477211e+00 0.0000000000000000e+00 0.0000000000000000e+00
5.2132132717515631e+00 0.0000000000000000e+00 0.0000000000000000e+00
5.2141204918724817e+00 0.0000000000000000e+00 0.0000000000000000e+00
5.2150204193111769e+00 0.0000000000000000e+00 0.0000000000000000e+00
5.2159131303793371e+00 0.0000000000000000e+00 0.0000000000000000e+00
5.2167971785650966e+00 0.0000000000000000e+00 0.0000000000000000e+00
5.2176697757606121e+00 0.0000000000000000e+00 0.0000000000000000e+00
5.2185297428523532e+00 0.0000000000000000e+00 0.0000000000000000e+00
5.2193791671469185e+00 0.0000000000000000e+00 0.0000000000000000e+00
5.2202188523485944e+00 0.0000000000000000e+00 0.0000000000000000e+00
5.2210482828083435e+00 0.0000000000000000e+00 0.0000000000000000e+00
5.2218671677010322e+00 0.0000000000000000e+00 0.0000000000000000e+00
5.2226754846025525e+00 0.0000000000000000e+00 0.0000000000000000e+00
5.2234736147903567e+00 0.0000000000000000e+00 0.0000000000000000e+00
5.2242647785256073e+00 0.0000000000000000e+00 0.0000000000000000e+00
5.2250478267812204e+00 0.0000000000000000e+00 0.0000000000000000e+00
5.2258191868293906e+00 0.0000000000000000e+00 0.0000000000000000e+00
5.2265799145953702e+00 0.0000000000000000e+00 0.0000000000000000e+00
5.2273303468644796e+00 0.0000000000000000e+00 0.0000000000000000e+00
5.2280697599042165e+00 0.0000000000000000e+00 0.0000000000000000e+00
5.2287977016956866e+00 0.0000000000000000e+00 0.0000000000000000e+00
5.2295147669356847e+00 0.0000000000000000e+00 0.0000000000000000e+00
5.2302213866938079e+00 0.0000000000000000e+00 0.0000000000000000e+00
5.2309181681059815e+00 0.0000000000000000e+00 0.0000000000000000e+00
5.2316049975772705e+00 0.0000000000000000e+00 0.0000000000000000e+00
5.2322816947317712e+00 0.0000000000000000e+00 0.0000000000000000e+00
5.2329481519019820e+00 0.0000000000000000e+00 0.0000000000000000e+00
5.2336044156798422e+00 0.0000000000000000e+00 0.0000000000000000e+00
5.2342502236570949e+00 0.0000000000000000e+00 0.0000000000000000e+00
5.2348862828462659e+00 0.0000000000000000e+00 0.0000000000000000e+00
5.2355130454481635e+00 0.0000000000000000e+00 0.0000000000000000e+00
5.2361298260670379e+00 0.0000000000000000e+00 0.0000000000000000e+00
5.2367364154649536e+00 0.0000000000000000e+00 0.0000000000000000e+00
5.2373326948442376e+00 0.0000000000000000e+00 0.0000000000000000e+00
5.2379185945044657e+00 0.0000000000000000e+00 0.0000000000000000e+00
5.2384940718864330e+00 0.0000000000000000e+00 0.0000000000000000e+00
5.2390590991503929e+00 0.0000000000000000e+00 0.0000000000000000e+00
5.2396136559468243e+00 0.0000000000000000e+00 0.0000000000000000e+00
5.2401577271610629e+00 0.0000000000000000e+00 0.0000000000000000e+00
5.2406913000536379e+00 0.0000000000000000e+00 0.0000000000000000e+00
5.2412143631553834e+00 0.0000000000000000e+00 0.0000000000000000e+00
5.2417269061408831e+00 0.0000000000000000e+00 0.0000000000000000e+00
5.2422289189657922e+00 0.0000000000000000e+00 0.0000000000000000e+00
5.2427203920557828e+00 0.0000000000000000e+00 0.0000000000000000e+00
5.2432013163619366e+00 0.0000000000000000e+00 0.0000000000000000e+00
5.2436716828401551e+00 0.0000000000000000e+00 0.0000000000000000e+00
5.2441314820790481e+00 0.0000000000000000e+00 0.0000000000000000e+00
5.2445807056366975e+00 0.0000000000000000e+00 0.0000000000000000e+00
5.2450193456398306e+00 0.0000000000000000e+00 0.0000000000000000e+00
5.2454473937805304e+00 0.0000000000000000e+00 0.0000000000000000e+00
5.2458648419457514e+00 0.0000000000000000e+00 0.0000000000000000e+00
5.2462716824937745e+00 0.0000000000000000e+00 0.0000000000000000e+00
5.2466679077608855e+00 0.0000000000000000e+00 0.0000000000000000e+00
5.2470535100162312e+00 0.0000000000000000e+00 0.0000000000000000e+00
5.2474284819401067e+00 0.0000000000000000e+00 0.0000000000000000e+00
5.2477928164306755e+00 0.0000000000000000e+00 0.0000000000000000e+00
5.2481465064970036e+00 0.0000000000000000e+00 0.0000000000000000e+00
5.2484895454748219e+00 0.0000000000000000e+00 0.0000000000000000e+00
5.2488219268694181e+00 0.0000000000000000e+00 0.0000000000000000e+00
5.2491436442969643e+00 0.0000000000000000e+00 0.0000000000000000e+00
5.2494546915197589e+00 0.0000000000000000e+00 0.0000000000000000e+00
5.2497550624932128e+00 0.0000000000000000e+00 0.0000000000000000e+00
5.2500447512851558e+00 0.0000000000000000e+00 0.0000000000000000e+00
5.2503237522405604e+00 0.0000000000000000e+00 0.0000000000000000e+00
5.2505920599707174e+00 0.0000000000000000e+00 0.0000000000000000e+00
5.2508496690229851e+00 0.0000000000000000e+00 0.0000000000000000e+00
5.2510965746124665e+00 0.0000000000000000e+00 0.0000000000000000e+00
5.2513327715323141e+00 0.0000000000000000e+00 0.0000000000000000e+00
5.2515582553052225e+00 0.0000000000000000e+00 0.0000000000000000e+00
5.2517730217131744e+00 0.0000000000000000e+00 0.0000000000000000e+00
5.2519770659090002e+00 0.0000000000000000e+00 0.0000000000000000e+00
5.2521703838017162e+00 0.0000000000000000e+00 0.0000000000000000e+00
5.2523529712669887e+00 0.0000000000000000e+00 0.0000000000000000e+00
5.2525248252574306e+00 0.0000000000000000e+00 0.0000000000000000e+00
5.2526859416379201e+00 0.0000000000000000e+00 0.0000000000000000e+00
5.2528363162539753e+00 0.0000000000000000e+00 0.0000000000000000e+00
5.2529759461515644e+00 0.0000000000000000e+00 0.0000000000000000e+00
5.2531048273965970e+00 0.0000000000000000e+00 0.0000000000000000e+00
5.2532229575204727e+00 0.0000000000000000e+00 0.0000000000000000e+00
5.2533303338710793e+00 0.0000000000000000e+00 0.0000000000000000e+00
5.2534269566831240e+00 0.0000000000000000e+00 0.0000000000000000e+00
5.2535128198281384e+00 0.0000000000000000e+00 0.0000000000000000e+00
5.2535879268958556e+00 0.0000000000000000e+00 0.0000000000000000e+00
5.2536522589134078e+00 0.0000000000000000e+00 0.0000000000000000e+00
5.2537058612409133e+00 0.0000000000000000e+00 0.0000000000000000e+00
5.2537486072019179e+00 0.0000000000000000e+00 0.0000000000000000e+00
5.2537808215906274e+00 0.0000000000000000e+00 0.0000000000000000e+00
5.2538016532543272e+00 0.0000000000000000e+00 0.0000000000000000e+00
5.2538133128618956e+00 0.0000000000000000e+00 0.0000000000000000e+00
5.2538100502063898e+00 0.0000000000000000e+00 0.0000000000000000e+00
5.2538067875508832e+00 0.0000000000000000e+00 0.0000000000000000e+00


SCALARS pressure float
LOOKUP_TABLE default
-6.6668798237939990e+00
-6.5977948462479139e+00
-6.5287098687018279e+00
-6.4596794047132748e+00
-6.3907297558620293e+00
-6.3218736974095178e+00
-6.2531259634808212e+00
-6.1845084650856119e+00
-6.1160203797752999e+00
-6.0476409742581314e+00
-5.9793558698497300e+00
-5.9111649071223145e+00
-5.8430693363607853e+00
-5.7750731409380025e+00
-5.7071887186148258e+00
-5.6394175933560922e+00
-5.5717522344371249e+00
-5.5041779637133335e+00
-5.4366861617596101e+00
-5.3692827385355182e+00
-5.3019707297431822e+00
-5.2347467893528341e+00
-5.1676067891519875e+00
-5.1005470460712461e+00
-5.0335656264956583e+00
-4.9666752380781958e+00
-4.8998730905857339e+00
-4.8331411674146274e+00
-4.7664783594590894e+00
-4.6998839446124263e+00
-4.6333528745803472e+00
-4.5668804278049846e+00
-4.5004663160528899e+00
-4.4341105338193918e+00
-4.3678141113213984e+00
-4.3015752362522557e+00
-4.2353912153740714e+00
-4.1692594747244565e+00
-4.1031781071183770e+00
-4.0371440467383417e+00
-3.9711579691977099e+00
-3.9052198947370780e+00
-3.8393250071000087e+00
-3.7734695180704207e+00
-3.7076502122537107e+00
-3.6418641857450842e+00
-3.5761087046885791e+00
-3.5103811266580367e+00
-3.4446788556471208e+00
-3.3789993243145071e+00
-3.3133399790376243e+00
-3.2476982728699464e+00
-3.1820716634634381e+00
-3.1164576094103293e+00
-3.0508535704936524e+00
-2.9852570078421743e+00
-2.9196653816647289e+00
-2.8540761494301212e+00
-2.7884867713896209e+00
-2.7228947098285459e+00
-2.6572974248000309e+00
-2.5916923760449100e+00
-2.5260770244274795e+00
-2.4604488301345642e+00
-2.3948052523032421e+00
-2.3291437509748500e+00
-2.2634617867051601e+00
-2.1977568200807327e+00
-2.1320263125864582e+00
-2.0662677261663536e+00
-2.0004785229295350e+00
-1.9346561652416099e+00
-1.8687981159598006e+00
-1.8029018381503026e+00
-1.7369647958601877e+00
-1.6709844542713650e+00
-1.6049582783374086e+00
-1.5388837357990348e+00
-1.4727582929876963e+00
-1.4065794191036625e+00
-1.3403445849392113e+00
-1.2740512588407669e+00
-1.2076969119931045e+00
-1.1412790161243886e+00
-1.0747950480797506e+00
-1.0082424810365525e+00
-9.4161878740363159e-01
-8.7492144485240575e-01
-8.0814792812549763e-01
-7.4129571791234461e-01
-6.7436229611709197e-01
-6.0734515800456368e-01
-5.4024177392795480e-01
-4.7304965227185375e-01
-4.0576621027110160e-01
-3.3838913035219592e-01
-2.7091539470047621e-01
-2.0334382012566382e-01
-1.3566845968001134e-01
-6.7895748435319758e-02
0.0000000000000000e+00


SCALARS diameter float
LOOKUP_TABLE default
9.9939463853300037e-01
9.9940292907082851e-01
9.9940999696546540e-01
9.9941699503967663e-01
9.9942404776223659e-01
9.9943113245807991e-01
9.9943671047317051e-01
9.9944139117237252e-01
9.9944676630623275e-01
9.9945341654606445e-01
9.9946057495122553e-01
9.9946778000199199e-01
9.9947494671852732e-01
9.9948111200183631e-01
9.9948626098319393e-01
9.9949138216550915e-01
9.9949679629272170e-01
9.9950329298374974e-01
9.9950973525976317e-01
9.9951594464214699e-01
9.9952217244929553e-01
9.9952863489818033e-01
9.9953512994925575e-01
9.9954163623151115e-01
9.9954725620576312e-01
9.9955185556304338e-01
9.9955767186215172e-01
9.9956349449112769e-01
9.9956933080226285e-01
9.9957522194655479e-01
9.9958158353481508e-01
9.9958795518035859e-01
9.9959435313933720e-01
9.9960054351117367e-01
9.9960664807216715e-01
9.9961276538150423e-01
9.9961889562651252e-01
9.9962503909510370e-01
9.9963119550669444e-01
9.9963733873488592e-01
9.9964306122084945e-01
9.9964879163870834e-01
9.9965453165855056e-01
9.9966028143025809e-01
9.9966604096567346e-01
9.9967181018868312e-01
9.9967758892977121e-01
9.9968337727770773e-01
9.9968917510327637e-01
9.9969498209913399e-01
9.9970079827947178e-01
9.9970662340575067e-01
9.9971245736623071e-01
9.9971830004953588e-01
9.9972415125912117e-01
9.9973001082656399e-01
9.9973587880018633e-01
9.9974175504209029e-01
9.9974763913154119e-01
9.9975353100000841e-01
9.9975943057419070e-01
9.9976533764251219e-01
9.9977125203630535e-01
9.9977717370367347e-01
9.9978310251739655e-01
9.9978903827382326e-01
9.9979498087359864e-01
9.9980093012818927e-01
9.9980688586964239e-01
9.9981284795464231e-01
9.9981881625419022e-01
9.9982479062670182e-01
9.9983077093416750e-01
9.9983675704460984e-01
9.9984274874270929e-01
9.9984874594151307e-01
9.9985474843944666e-01
9.9986075603766267e-01
9.9986676876748393e-01
9.9987278606603291e-01
9.9987880821687380e-01
9.9988483484688540e-01
9.9989086594841359e-01
9.9989690110842666e-01
9.9990294021204884e-01
9.9990898356850055e-01
9.9991503068047050e-01
9.9992108162337923e-01
9.9992713628310781e-01
9.9993319406909231e-01
9.9993925477415424e-01
9.9994531791415975e-01
9.9995138471344980e-01
9.9995745368098010e-01
9.9996352531772670e-01
9.9996959933274387e-01
9.9997567557864531e-01
9.9998175389458244e-01
9.9998783408806879e-01
9.9999391612465183e-01
1.0000000005800485e+00


SCALARS iters float
LOOKUP_TABLE default
3.0000000000000000e+00
3.0000000000000000e+00
3.0000000000000000e+00
3.0000000000000000e+00
3.0000000000000000e+00
3.0000000000000000e+00
3.0000000000000000e+00
3.0000000000000000e+00
3.0000000000000000e+00
3.0000000000000000e+00
3.0000000000000000e+00
3.0000000000000000e+00
3.0000000000000000e+00
3.0000000000000000e+00
3.0000000000000000e+00
3.0000000000000000e+00
3.0000000000000000e+00
3.0000000000000000e+00
3.0000000000000000e+00
3.0000000000000000e+00
3.0000000000000000e+00
3.0000000000000000e+00
3.0000000000000000e+00
3.0000000000000000e+00
3.0000000000000000e+00
3.0000000000000000e+00
3.0000000000000000e+00
3.0000000000000000e+00
3.0000000000000000e+00
3.0000000000000000e+00
3.0000000000000000e+00
3.0000000000000000e+00
3.0000000000000000e+00
3.0000000000000000e+00
3.0000000000000000e+00
3.0000000000000000e+00
3.0000000000000000e+00
3.0000000000000000e+00
3.0000000000000000e+00
3.0000000000000000e+00
3.0000000000000000e+00
3.0000000000000000e+00
3.0000000000000000e+00
3.0000000000000000e+00
3.0000000000000000e+00
3.0000000000000000e+00
3.0000000000000000e+00
3.0000000000000000e+00
3.0000000000000000e+00
3.0000000000000000e+00
3.0000000000000000e+00
3.0000000000000000e+00
3.0000000000000000e+00
3.0000000000000000e+00
3.0000000000000000e+00
3.0000000000000000e+00
3.0000000000000000e+00
3.0000000000000000e+00
3.0000000000000000e+00
3.0000000000000000e+00
3.0000000000000000e+00
3.0000000000000000e+00
3.0000000000000000e+00
3.0000000000000000e+00
3.0000000000000000e+00
3.0000000000000000e+00
3.0000000000000000e+00
3.0000000000000000e+00
3.0000000000000000e+00
3.0000000000000000e+00
3.0000000000000000e+00
3.0000000000000000e+00
3.0000000000000000e+00
3.0000000000000000e+00
3.0000000000000000e+00
3.0000000000000000e+00
3.0000000000000000e+00
3.0000000000000000e+00
3.0000000000000000e+00
3.0000000000000000e+00
3.0000000000000000e+00
3.0000000000000000e+00
3.0000000000000000e+00
3.0000000000000000e+00
3.0000000000000000e+00
3.0000000000000000e+00
3.0000000000000000e+00
3.0000000000000000e+00
3.0000000000000000e+00
3.0000000000000000e+00
3.0000000000000000e+00
3.0000000000000000e+00
3.0000000000000000e+00
3.0000000000000000e+00
3.0000000000000000e+00
3.0000000000000000e+00
3.0000000000000000e+00
3.0000000000000000e+00
3.0000000000000000e+00
3.0000000000000000e+00
3.0000000000000000e+00


