# vtk DataFile Version 2.0

ASCII

DATASET UNSTRUCTURED_GRID

POINTS 101 float

0.0000000000000000e+00 0.0000000000000000e+00 0.0000000000000000e+00
1.0000000000000001e-01 0.0000000000000000e+00 0.0000000000000000e+00
2.0000000000000001e-01 0.0000000000000000e+00 0.0000000000000000e+00
3.0000000000000004e-01 0.0000000000000000e+00 0.0000000000000000e+00
4.0000000000000002e-01 0.0000000000000000e+00 0.0000000000000000e+00
5.0000000000000000e-01 0.0000000000000000e+00 0.0000000000000000e+00
6.0000000000000009e-01 0.0000000000000000e+00 0.0000000000000000e+00
7.0000000000000007e-01 0.0000000000000000e+00 0.0000000000000000e+00
8.0000000000000004e-01 0.0000000000000000e+00 0.0000000000000000e+00
9.0000000000000002e-01 0.0000000000000000e+00 0.0000000000000000e+00
1.0000000000000000e+00 0.0000000000000000e+00 0.0000000000000000e+00
1.1000000000000001e+00 0.0000000000000000e+00 0.0000000000000000e+00
1.2000000000000002e+00 0.0000000000000000e+00 0.0000000000000000e+00
1.3000000000000000e+00 0.0000000000000000e+00 0.0000000000000000e+00
1.4000000000000001e+00 0.0000000000000000e+00 0.0000000000000000e+00
1.5000000000000000e+00 0.0000000000000000e+00 0.0000000000000000e+00
1.6000000000000001e+00 0.0000000000000000e+00 0.0000000000000000e+00
1.7000000000000002e+00 0.0000000000000000e+00 0.0000000000000000e+00
1.8000000000000000e+00 0.0000000000000000e+00 0.0000000000000000e+00
1.9000000000000001e+00 0.0000000000000000e+00 0.0000000000000000e+00
2.0000000000000000e+00 0.0000000000000000e+00 0.0000000000000000e+00
2.1000000000000001e+00 0.0000000000000000e+00 0.0000000000000000e+00
2.2000000000000002e+00 0.0000000000000000e+00 0.0000000000000000e+00
2.3000000000000003e+00 0.0000000000000000e+00 0.0000000000000000e+00
2.4000000000000004e+00 0.0000000000000000e+00 0.0000000000000000e+00
2.5000000000000000e+00 0.0000000000000000e+00 0.0000000000000000e+00
2.6000000000000001e+00 0.0000000000000000e+00 0.0000000000000000e+00
2.7000000000000002e+00 0.0000000000000000e+00 0.0000000000000000e+00
2.8000000000000003e+00 0.0000000000000000e+00 0.0000000000000000e+00
2.9000000000000004e+00 0.0000000000000000e+00 0.0000000000000000e+00
3.0000000000000000e+00 0.0000000000000000e+00 0.0000000000000000e+00
3.1000000000000001e+00 0.0000000000000000e+00 0.0000000000000000e+00
3.2000000000000002e+00 0.0000000000000000e+00 0.0000000000000000e+00
3.3000000000000003e+00 0.0000000000000000e+00 0.0000000000000000e+00
3.4000000000000004e+00 0.0000000000000000e+00 0.0000000000000000e+00
3.5000000000000000e+00 0.0000000000000000e+00 0.0000000000000000e+00
3.6000000000000001e+00 0.0000000000000000e+00 0.0000000000000000e+00
3.7000000000000002e+00 0.0000000000000000e+00 0.0000000000000000e+00
3.8000000000000003e+00 0.0000000000000000e+00 0.0000000000000000e+00
3.9000000000000004e+00 0.0000000000000000e+00 0.0000000000000000e+00
4.0000000000000000e+00 0.0000000000000000e+00 0.0000000000000000e+00
4.1000000000000005e+00 0.0000000000000000e+00 0.0000000000000000e+00
4.2000000000000002e+00 0.0000000000000000e+00 0.0000000000000000e+00
4.2999999999999998e+00 0.0000000000000000e+00 0.0000000000000000e+00
4.4000000000000004e+00 0.0000000000000000e+00 0.0000000000000000e+00
4.5000000000000000e+00 0.0000000000000000e+00 0.0000000000000000e+00
4.6000000000000005e+00 0.0000000000000000e+00 0.0000000000000000e+00
4.7000000000000002e+00 0.0000000000000000e+00 0.0000000000000000e+00
4.8000000000000007e+00 0.0000000000000000e+00 0.0000000000000000e+00
4.9000000000000004e+00 0.0000000000000000e+00 0.0000000000000000e+00
5.0000000000000000e+00 0.0000000000000000e+00 0.0000000000000000e+00
5.1000000000000005e+00 0.0000000000000000e+00 0.0000000000000000e+00
5.2000000000000002e+00 0.0000000000000000e+00 0.0000000000000000e+00
5.3000000000000007e+00 0.0000000000000000e+00 0.0000000000000000e+00
5.4000000000000004e+00 0.0000000000000000e+00 0.0000000000000000e+00
5.5000000000000000e+00 0.0000000000000000e+00 0.0000000000000000e+00
5.6000000000000005e+00 0.0000000000000000e+00 0.0000000000000000e+00
5.7000000000000002e+00 0.0000000000000000e+00 0.0000000000000000e+00
5.8000000000000007e+00 0.0000000000000000e+00 0.0000000000000000e+00
5.9000000000000004e+00 0.0000000000000000e+00 0.0000000000000000e+00
6.0000000000000000e+00 0.0000000000000000e+00 0.0000000000000000e+00
6.1000000000000005e+00 0.0000000000000000e+00 0.0000000000000000e+00
6.2000000000000002e+00 0.0000000000000000e+00 0.0000000000000000e+00
6.3000000000000007e+00 0.0000000000000000e+00 0.0000000000000000e+00
6.4000000000000004e+00 0.0000000000000000e+00 0.0000000000000000e+00
6.5000000000000000e+00 0.0000000000000000e+00 0.0000000000000000e+00
6.6000000000000005e+00 0.0000000000000000e+00 0.0000000000000000e+00
6.7000000000000002e+00 0.0000000000000000e+00 0.0000000000000000e+00
6.8000000000000007e+00 0.0000000000000000e+00 0.0000000000000000e+00
6.9000000000000004e+00 0.0000000000000000e+00 0.0000000000000000e+00
7.0000000000000000e+00 0.0000000000000000e+00 0.0000000000000000e+00
7.1000000000000005e+00 0.0000000000000000e+00 0.0000000000000000e+00
7.2000000000000002e+00 0.0000000000000000e+00 0.0000000000000000e+00
7.3000000000000007e+00 0.0000000000000000e+00 0.0000000000000000e+00
7.4000000000000004e+00 0.0000000000000000e+00 0.0000000000000000e+00
7.5000000000000000e+00 0.0000000000000000e+00 0.0000000000000000e+00
7.6000000000000005e+00 0.0000000000000000e+00 0.0000000000000000e+00
7.7000000000000002e+00 0.0000000000000000e+00 0.0000000000000000e+00
7.8000000000000007e+00 0.0000000000000000e+00 0.0000000000000000e+00
7.9000000000000004e+00 0.0000000000000000e+00 0.0000000000000000e+00
8.0000000000000000e+00 0.0000000000000000e+00 0.0000000000000000e+00
8.0999999999999996e+00 0.0000000000000000e+00 0.0000000000000000e+00
8.2000000000000011e+00 0.0000000000000000e+00 0.0000000000000000e+00
8.3000000000000007e+00 0.0000000000000000e+00 0.0000000000000000e+00
8.4000000000000004e+00 0.0000000000000000e+00 0.0000000000000000e+00
8.5000000000000000e+00 0.0000000000000000e+00 0.0000000000000000e+00
8.5999999999999996e+00 0.0000000000000000e+00 0.0000000000000000e+00
8.7000000000000011e+00 0.0000000000000000e+00 0.0000000000000000e+00
8.8000000000000007e+00 0.0000000000000000e+00 0.0000000000000000e+00
8.9000000000000004e+00 0.0000000000000000e+00 0.0000000000000000e+00
9.0000000000000000e+00 0.0000000000000000e+00 0.0000000000000000e+00
9.0999999999999996e+00 0.0000000000000000e+00 0.0000000000000000e+00
9.2000000000000011e+00 0.0000000000000000e+00 0.0000000000000000e+00
9.3000000000000007e+00 0.0000000000000000e+00 0.0000000000000000e+00
9.4000000000000004e+00 0.0000000000000000e+00 0.0000000000000000e+00
9.5000000000000000e+00 0.0000000000000000e+00 0.0000000000000000e+00
9.6000000000000014e+00 0.0000000000000000e+00 0.0000000000000000e+00
9.7000000000000011e+00 0.0000000000000000e+00 0.0000000000000000e+00
9.8000000000000007e+00 0.0000000000000000e+00 0.0000000000000000e+00
9.9000000000000004e+00 0.0000000000000000e+00 0.0000000000000000e+00
1.0000000000000000e+01 0.0000000000000000e+00 0.0000000000000000e+00

POINT_DATA 101

VECTORS velocity float
4.4309650845140318e+00 0.0000000000000000e+00 0.0000000000000000e+00
4.4307351386096130e+00 0.0000000000000000e+00 0.0000000000000000e+00
4.4305009243366280e+00 0.0000000000000000e+00 0.0000000000000000e+00
4.4302622496609079e+00 0.0000000000000000e+00 0.0000000000000000e+00
4.4300207378180305e+00 0.0000000000000000e+00 0.0000000000000000e+00
4.4297802728493805e+00 0.0000000000000000e+00 0.0000000000000000e+00
4.4295444014617527e+00 0.0000000000000000e+00 0.0000000000000000e+00
4.4293135719824246e+00 0.0000000000000000e+00 0.0000000000000000e+00
4.4290853673825756e+00 0.0000000000000000e+00 0.0000000000000000e+00
4.4288583757539817e+00 0.0000000000000000e+00 0.0000000000000000e+00
4.4286334107181613e+00 0.0000000000000000e+00 0.0000000000000000e+00
4.4284110532551093e+00 0.0000000000000000e+00 0.0000000000000000e+00
4.4281923391721207e+00 0.0000000000000000e+00 0.0000000000000000e+00
4.4279796024382359e+00 0.0000000000000000e+00 0.0000000000000000e+00
4.4277729846370288e+00 0.0000000000000000e+00 0.0000000000000000e+00
4.4275714806083686e+00 0.0000000000000000e+00 0.0000000000000000e+00
4.4273712847950790e+00 0.0000000000000000e+00 0.0000000000000000e+00
4.4271705105180450e+00 0.0000000000000000e+00 0.0000000000000000e+00
4.4269726355041374e+00 0.0000000000000000e+00 0.0000000000000000e+00
4.4267792387594307e+00 0.0000000000000000e+00 0.0000000000000000e+00
4.4265896898521744e+00 0.0000000000000000e+00 0.0000000000000000e+00
4.4264032665985535e+00 0.0000000000000000e+00 0.0000000000000000e+00
4.4262204944332169e+00 0.0000000000000000e+00 0.0000000000000000e+00
4.4260420976993640e+00 0.0000000000000000e+00 0.0000000000000000e+00
4.4258703590317312e+00 0.0000000000000000e+00 0.0000000000000000e+00
4.4257032416705586e+00 0.0000000000000000e+00 0.0000000000000000e+00
4.4255374989267544e+00 0.0000000000000000e+00 0.0000000000000000e+00
4.4253744802103725e+00 0.0000000000000000e+00 0.0000000000000000e+00
4.4252147705645726e+00 0.0000000000000000e+00 0.0000000000000000e+00
4.4250578594800016e+00 0.0000000000000000e+00 0.0000000000000000e+00
4.4249033693523163e+00 0.0000000000000000e+00 0.0000000000000000e+00
4.4247517978652260e+00 0.0000000000000000e+00 0.0000000000000000e+00
4.4246039008020892e+00 0.0000000000000000e+00 0.0000000000000000e+00
4.4244606694832402e+00 0.0000000000000000e+00 0.0000000000000000e+00
4.4243217884644963e+00 0.0000000000000000e+00 0.0000000000000000e+00
4.4241867950352844e+00 0.0000000000000000e+00 0.0000000000000000e+00
4.4240555376513422e+00 0.0000000000000000e+00 0.0000000000000000e+00
4.4239278808097744e+00 0.0000000000000000e+00 0.0000000000000000e+00
4.4238039170772634e+00 0.0000000000000000e+00 0.0000000000000000e+00
4.4236832032968278e+00 0.0000000000000000e+00 0.0000000000000000e+00
4.4235653496282472e+00 0.0000000000000000e+00 0.0000000000000000e+00
4.4234507628214450e+00 0.0000000000000000e+00 0.0000000000000000e+00
4.4233395730611047e+00 0.0000000000000000e+00 0.0000000000000000e+00
4.4232318429064321e+00 0.0000000000000000e+00 0.0000000000000000e+00
4.4231276030023201e+00 0.0000000000000000e+00 0.0000000000000000e+00
4.4230268688201235e+00 0.0000000000000000e+00 0.0000000000000000e+00
4.4229296481278961e+00 0.0000000000000000e+00 0.0000000000000000e+00
4.4228359433759836e+00 0.0000000000000000e+00 0.0000000000000000e+00
4.4227457563726880e+00 0.0000000000000000e+00 0.0000000000000000e+00
4.4226590884921890e+00 0.0000000000000000e+00 0.0000000000000000e+00
4.4225759401409110e+00 0.0000000000000000e+00 0.0000000000000000e+00
4.4224963123676231e+00 0.0000000000000000e+00 0.0000000000000000e+00
4.4224202051037889e+00 0.0000000000000000e+00 0.0000000000000000e+00
4.4223476180017487e+00 0.0000000000000000e+00 0.0000000000000000e+00
4.4222785514245357e+00 0.0000000000000000e+00 0.0000000000000000e+00
4.4222130056622921e+00 0.0000000000000000e+00 0.0000000000000000e+00
4.4221509805995360e+00 0.0000000000000000e+00 0.0000000000000000e+00
4.4220924764746012e+00 0.0000000000000000e+00 0.0000000000000000e+00
4.4220374936425282e+00 0.0000000000000000e+00 0.0000000000000000e+00
4.4219860319785829e+00 0.0000000000000000e+00 0.0000000000000000e+00
4.4219380912053934e+00 0.0000000000000000e+00 0.0000000000000000e+00
4.4218936716009019e+00 0.0000000000000000e+00 0.0000000000000000e+00
4.4218527733014836e+00 0.0000000000000000e+00 0.0000000000000000e+00
4.4218153961143845e+00 0.0000000000000000e+00 0.0000000000000000e+00
4.4217815400467018e+00 0.0000000000000000e+00 0.0000000000000000e+00
4.4217512050932335e+00 0.0000000000000000e+00 0.0000000000000000e+00
4.4217243911813622e+00 0.0000000000000000e+00 0.0000000000000000e+00
4.4217010983557223e+00 0.0000000000000000e+00 0.0000000000000000e+00
4.4216813265744479e+00 0.0000000000000000e+00 0.0000000000000000e+00
4.4216650756928866e+00 0.0000000000000000e+00 0.0000000000000000e+00
4.4216523455779777e+00 0.0000000000000000e+00 0.0000000000000000e+00
4.4216431361335289e+00 0.0000000000000000e+00 0.0000000000000000e+00
4.4216374471857565e+00 0.0000000000000000e+00 0.0000000000000000e+00
4.4216352784991191e+00 0.0000000000000000e+00 0.0000000000000000e+00
4.4216366298461702e+00 0.0000000000000000e+00 0.0000000000000000e+00
4.4216415009993382e+00 0.0000000000000000e+00 0.0000000000000000e+00
4.4216498917505023e+00 0.0000000000000000e+00 0.0000000000000000e+00
4.4216618018849001e+00 0.0000000000000000e+00 0.0000000000000000e+00
4.4216772311084984e+00 0.0000000000000000e+00 0.0000000000000000e+00
4.4216961787957905e+00 0.0000000000000000e+00 0.0000000000000000e+00
4.4217186451040433e+00 0.0000000000000000e+00 0.0000000000000000e+00
4.4217446298950067e+00 0.0000000000000000e+00 0.0000000000000000e+00
4.4217741327112057e+00 0.0000000000000000e+00 0.0000000000000000e+00
4.4218071525603353e+00 0.0000000000000000e+00 0.0000000000000000e+00
4.4218436893033317e+00 0.0000000000000000e+00 0.0000000000000000e+00
4.4218837436428915e+00 0.0000000000000000e+00 0.0000000000000000e+00
4.4219273161324537e+00 0.0000000000000000e+00 0.0000000000000000e+00
4.4219744047872789e+00 0.0000000000000000e+00 0.0000000000000000e+00
4.4220250073498688e+00 0.0000000000000000e+00 0.0000000000000000e+00
4.4220791240897448e+00 0.0000000000000000e+00 0.0000000000000000e+00
4.4221367559508069e+00 0.0000000000000000e+00 0.0000000000000000e+00
4.4221979052283826e+00 0.0000000000000000e+00 0.0000000000000000e+00
4.4222625662284862e+00 0.0000000000000000e+00 0.0000000000000000e+00
4.4223307466281634e+00 0.0000000000000000e+00 0.0000000000000000e+00
4.4224024250893894e+00 0.0000000000000000e+00 0.0000000000000000e+00
4.4224776516492792e+00 0.0000000000000000e+00 0.0000000000000000e+00
4.4225562998017836e+00 0.0000000000000000e+00 0.0000000000000000e+00
4.4226386837231670e+00 0.0000000000000000e+00 0.0000000000000000e+00
4.4227240157705152e+00 0.0000000000000000e+00 0.0000000000000000e+00
4.4228142595163487e+00 0.0000000000000000e+00 0.0000000000000000e+00
4.4229045032621821e+00 0.0000000000000000e+00 0.0000000000000000e+00


SCALARS pressure float
LOOKUP_TABLE default
2.4827735236945973e+01
2.4580665803625106e+01
2.4333596370304242e+01
2.4086531285185284e+01
2.3839473846529440e+01
2.3592419849697613e+01
2.3345354741469819e+01
2.3098263906572562e+01
2.2851144490480156e+01
2.2604005285632859e+01
2.2356852672484514e+01
2.2109684303034737e+01
2.1862497806038032e+01
2.1615288971188573e+01
2.1368047821952644e+01
2.1120771986963426e+01
2.0873464760746547e+01
2.0626141078151488e+01
2.0378808873298826e+01
2.0131455149402111e+01
1.9884072481938329e+01
1.9636662707581323e+01
1.9389229309558413e+01
1.9141770962991707e+01
1.8894284525503107e+01
1.8646759602067100e+01
1.8399202406059629e+01
1.8151626567666590e+01
1.7904028463557069e+01
1.7656405291103521e+01
1.7408758709692144e+01
1.7161090361307121e+01
1.6913398478688343e+01
1.6665679792604475e+01
1.6417929816697182e+01
1.6170149001410024e+01
1.5922339015810351e+01
1.5674500482517045e+01
1.5426633859724726e+01
1.5178738681322580e+01
1.4930816559267134e+01
1.4682869169298996e+01
1.4434895053248914e+01
1.4186893439017263e+01
1.3938863889652264e+01
1.3690806126464807e+01
1.3442719944517549e+01
1.3194605175043165e+01
1.2946461673639288e+01
1.2698289300590524e+01
1.2450087917781918e+01
1.2201857390217429e+01
1.1953597580240084e+01
1.1705308353840371e+01
1.1456989578212198e+01
1.1208641117589236e+01
1.0960262835829154e+01
1.0711854597915668e+01
1.0463416267051445e+01
1.0214947705591131e+01
9.9664487773607497e+00
9.7179193466202243e+00
9.4693592753546714e+00
9.2207684257199318e+00
8.9721466607737810e+00
8.7234938425956123e+00
8.4748098329573018e+00
8.2260944936030853e+00
7.9773476855778434e+00
7.7285692699699107e+00
7.4797591080689854e+00
7.2309170609780455e+00
6.9820429895148814e+00
6.7331367547049252e+00
6.4841982177092561e+00
6.2352272395943125e+00
5.9862236812431284e+00
5.7371874032683561e+00
5.4881182661674934e+00
5.2390161307055028e+00
4.9898808593965196e+00
4.7407123115125547e+00
4.4915103469755691e+00
4.2422748270349695e+00
3.9930056154145159e+00
3.7437025726512347e+00
3.4943655553925939e+00
3.2449944199727954e+00
2.9955890330116994e+00
2.7461492645421006e+00
2.4966749746878887e+00
2.2471660193480059e+00
1.9976222485373634e+00
1.7480435431502874e+00
1.4984297359489427e+00
1.2487807671805804e+00
9.9909631123137810e-01
7.4937670188133521e-01
4.9962062421746029e-01
2.4983089206927883e-01
0.0000000000000000e+00


SCALARS diameter float
LOOKUP_TABLE default
1.0022510145611403e+00
1.0022244081749594e+00
1.0021996788181777e+00
1.0021768200269392e+00
1.0021553678255792e+00
1.0021339421549504e+00
1.0021115726322181e+00
1.0020883194493220e+00
1.0020653318877284e+00
1.0020432569748949e+00
1.0020214754168966e+00
1.0019997176985744e+00
1.0019778825740897e+00
1.0019551710041736e+00
1.0019315165039235e+00
1.0019077834274022e+00
1.0018845633333573e+00
1.0018633088823958e+00
1.0018418932742921e+00
1.0018198911229697e+00
1.0017977177782518e+00
1.0017758256578650e+00
1.0017538372687398e+00
1.0017314995395479e+00
1.0017083111475200e+00
1.0016843914874094e+00
1.0016620185695708e+00
1.0016396451567817e+00
1.0016172659982512e+00
1.0015949232434835e+00
1.0015730624006052e+00
1.0015511850975154e+00
1.0015292876030106e+00
1.0015068698416856e+00
1.0014842281841594e+00
1.0014615820677679e+00
1.0014389300423798e+00
1.0014162713696302e+00
1.0013936063928597e+00
1.0013709549071619e+00
1.0013486190531375e+00
1.0013262749428755e+00
1.0013039229701508e+00
1.0012815638845916e+00
1.0012591978837608e+00
1.0012368249450843e+00
1.0012144450820688e+00
1.0011920588933902e+00
1.0011696667682775e+00
1.0011472682415323e+00
1.0011248638576404e+00
1.0011024533632837e+00
1.0010800370296333e+00
1.0010576153097464e+00
1.0010351881879545e+00
1.0010127556856907e+00
1.0009903180675928e+00
1.0009678754449616e+00
1.0009454278395198e+00
1.0009229754413826e+00
1.0009005185656208e+00
1.0008780572388731e+00
1.0008555914798820e+00
1.0008331215420041e+00
1.0008106475599066e+00
1.0007881696183969e+00
1.0007656879018478e+00
1.0007432024925682e+00
1.0007207135206686e+00
1.0006982211467812e+00
1.0006757255257395e+00
1.0006532267663513e+00
1.0006307250131026e+00
1.0006082204145674e+00
1.0005857131198403e+00
1.0005632032544278e+00
1.0005406909457475e+00
1.0005181763426869e+00
1.0004956595470407e+00
1.0004731408667273e+00
1.0004506202459318e+00
1.0004280976603730e+00
1.0004055734695991e+00
1.0003830478245532e+00
1.0003605210927928e+00
1.0003379926048814e+00
1.0003154626681585e+00
1.0002929313777400e+00
1.0002704004843841e+00
1.0002478686588325e+00
1.0002253364329330e+00
1.0002028022875116e+00
1.0001802682966252e+00
1.0001577339245313e+00
1.0001351996459273e+00
1.0001126654798884e+00
1.0000901314651658e+00
1.0000675977337277e+00
1.0000450646917634e+00
1.0000225326800691e+00
1.0000000011142571e+00


SCALARS iters float
LOOKUP_TABLE default
3.0000000000000000e+00
3.0000000000000000e+00
3.0000000000000000e+00
3.0000000000000000e+00
3.0000000000000000e+00
3.0000000000000000e+00
3.0000000000000000e+00
3.0000000000000000e+00
3.0000000000000000e+00
3.0000000000000000e+00
3.0000000000000000e+00
3.0000000000000000e+00
3.0000000000000000e+00
3.0000000000000000e+00
3.0000000000000000e+00
3.0000000000000000e+00
3.0000000000000000e+00
3.0000000000000000e+00
3.0000000000000000e+00
3.0000000000000000e+00
3.0000000000000000e+00
3.0000000000000000e+00
3.0000000000000000e+00
3.0000000000000000e+00
3.0000000000000000e+00
3.0000000000000000e+00
3.0000000000000000e+00
3.0000000000000000e+00
3.0000000000000000e+00
3.0000000000000000e+00
3.0000000000000000e+00
3.0000000000000000e+00
3.0000000000000000e+00
3.0000000000000000e+00
3.0000000000000000e+00
3.0000000000000000e+00
3.0000000000000000e+00
3.0000000000000000e+00
3.0000000000000000e+00
3.0000000000000000e+00
3.0000000000000000e+00
3.0000000000000000e+00
3.0000000000000000e+00
3.0000000000000000e+00
3.0000000000000000e+00
3.0000000000000000e+00
3.0000000000000000e+00
3.0000000000000000e+00
3.0000000000000000e+00
3.0000000000000000e+00
3.0000000000000000e+00
3.0000000000000000e+00
3.0000000000000000e+00
3.0000000000000000e+00
3.0000000000000000e+00
3.0000000000000000e+00
3.0000000000000000e+00
3.0000000000000000e+00
3.0000000000000000e+00
3.0000000000000000e+00
3.0000000000000000e+00
3.0000000000000000e+00
3.0000000000000000e+00
3.0000000000000000e+00
3.0000000000000000e+00
3.0000000000000000e+00
3.0000000000000000e+00
3.0000000000000000e+00
3.0000000000000000e+00
3.0000000000000000e+00
3.0000000000000000e+00
3.0000000000000000e+00
3.0000000000000000e+00
3.0000000000000000e+00
3.0000000000000000e+00
3.0000000000000000e+00
3.0000000000000000e+00
3.0000000000000000e+00
3.0000000000000000e+00
3.0000000000000000e+00
3.0000000000000000e+00
3.0000000000000000e+00
3.0000000000000000e+00
3.0000000000000000e+00
3.0000000000000000e+00
3.0000000000000000e+00
3.0000000000000000e+00
3.0000000000000000e+00
3.0000000000000000e+00
3.0000000000000000e+00
3.0000000000000000e+00
3.0000000000000000e+00
3.0000000000000000e+00
3.0000000000000000e+00
3.0000000000000000e+00
3.0000000000000000e+00
3.0000000000000000e+00
3.0000000000000000e+00
3.0000000000000000e+00
3.0000000000000000e+00
3.0000000000000000e+00


