# vtk DataFile Version 2.0

ASCII

DATASET UNSTRUCTURED_GRID

POINTS 101 float

0.0000000000000000e+00 0.0000000000000000e+00 0.0000000000000000e+00
1.0000000000000001e-01 0.0000000000000000e+00 0.0000000000000000e+00
2.0000000000000001e-01 0.0000000000000000e+00 0.0000000000000000e+00
3.0000000000000004e-01 0.0000000000000000e+00 0.0000000000000000e+00
4.0000000000000002e-01 0.0000000000000000e+00 0.0000000000000000e+00
5.0000000000000000e-01 0.0000000000000000e+00 0.0000000000000000e+00
6.0000000000000009e-01 0.0000000000000000e+00 0.0000000000000000e+00
7.0000000000000007e-01 0.0000000000000000e+00 0.0000000000000000e+00
8.0000000000000004e-01 0.0000000000000000e+00 0.0000000000000000e+00
9.0000000000000002e-01 0.0000000000000000e+00 0.0000000000000000e+00
1.0000000000000000e+00 0.0000000000000000e+00 0.0000000000000000e+00
1.1000000000000001e+00 0.0000000000000000e+00 0.0000000000000000e+00
1.2000000000000002e+00 0.0000000000000000e+00 0.0000000000000000e+00
1.3000000000000000e+00 0.0000000000000000e+00 0.0000000000000000e+00
1.4000000000000001e+00 0.0000000000000000e+00 0.0000000000000000e+00
1.5000000000000000e+00 0.0000000000000000e+00 0.0000000000000000e+00
1.6000000000000001e+00 0.0000000000000000e+00 0.0000000000000000e+00
1.7000000000000002e+00 0.0000000000000000e+00 0.0000000000000000e+00
1.8000000000000000e+00 0.0000000000000000e+00 0.0000000000000000e+00
1.9000000000000001e+00 0.0000000000000000e+00 0.0000000000000000e+00
2.0000000000000000e+00 0.0000000000000000e+00 0.0000000000000000e+00
2.1000000000000001e+00 0.0000000000000000e+00 0.0000000000000000e+00
2.2000000000000002e+00 0.0000000000000000e+00 0.0000000000000000e+00
2.3000000000000003e+00 0.0000000000000000e+00 0.0000000000000000e+00
2.4000000000000004e+00 0.0000000000000000e+00 0.0000000000000000e+00
2.5000000000000000e+00 0.0000000000000000e+00 0.0000000000000000e+00
2.6000000000000001e+00 0.0000000000000000e+00 0.0000000000000000e+00
2.7000000000000002e+00 0.0000000000000000e+00 0.0000000000000000e+00
2.8000000000000003e+00 0.0000000000000000e+00 0.0000000000000000e+00
2.9000000000000004e+00 0.0000000000000000e+00 0.0000000000000000e+00
3.0000000000000000e+00 0.0000000000000000e+00 0.0000000000000000e+00
3.1000000000000001e+00 0.0000000000000000e+00 0.0000000000000000e+00
3.2000000000000002e+00 0.0000000000000000e+00 0.0000000000000000e+00
3.3000000000000003e+00 0.0000000000000000e+00 0.0000000000000000e+00
3.4000000000000004e+00 0.0000000000000000e+00 0.0000000000000000e+00
3.5000000000000000e+00 0.0000000000000000e+00 0.0000000000000000e+00
3.6000000000000001e+00 0.0000000000000000e+00 0.0000000000000000e+00
3.7000000000000002e+00 0.0000000000000000e+00 0.0000000000000000e+00
3.8000000000000003e+00 0.0000000000000000e+00 0.0000000000000000e+00
3.9000000000000004e+00 0.0000000000000000e+00 0.0000000000000000e+00
4.0000000000000000e+00 0.0000000000000000e+00 0.0000000000000000e+00
4.1000000000000005e+00 0.0000000000000000e+00 0.0000000000000000e+00
4.2000000000000002e+00 0.0000000000000000e+00 0.0000000000000000e+00
4.2999999999999998e+00 0.0000000000000000e+00 0.0000000000000000e+00
4.4000000000000004e+00 0.0000000000000000e+00 0.0000000000000000e+00
4.5000000000000000e+00 0.0000000000000000e+00 0.0000000000000000e+00
4.6000000000000005e+00 0.0000000000000000e+00 0.0000000000000000e+00
4.7000000000000002e+00 0.0000000000000000e+00 0.0000000000000000e+00
4.8000000000000007e+00 0.0000000000000000e+00 0.0000000000000000e+00
4.9000000000000004e+00 0.0000000000000000e+00 0.0000000000000000e+00
5.0000000000000000e+00 0.0000000000000000e+00 0.0000000000000000e+00
5.1000000000000005e+00 0.0000000000000000e+00 0.0000000000000000e+00
5.2000000000000002e+00 0.0000000000000000e+00 0.0000000000000000e+00
5.3000000000000007e+00 0.0000000000000000e+00 0.0000000000000000e+00
5.4000000000000004e+00 0.0000000000000000e+00 0.0000000000000000e+00
5.5000000000000000e+00 0.0000000000000000e+00 0.0000000000000000e+00
5.6000000000000005e+00 0.0000000000000000e+00 0.0000000000000000e+00
5.7000000000000002e+00 0.0000000000000000e+00 0.0000000000000000e+00
5.8000000000000007e+00 0.0000000000000000e+00 0.0000000000000000e+00
5.9000000000000004e+00 0.0000000000000000e+00 0.0000000000000000e+00
6.0000000000000000e+00 0.0000000000000000e+00 0.0000000000000000e+00
6.1000000000000005e+00 0.0000000000000000e+00 0.0000000000000000e+00
6.2000000000000002e+00 0.0000000000000000e+00 0.0000000000000000e+00
6.3000000000000007e+00 0.0000000000000000e+00 0.0000000000000000e+00
6.4000000000000004e+00 0.0000000000000000e+00 0.0000000000000000e+00
6.5000000000000000e+00 0.0000000000000000e+00 0.0000000000000000e+00
6.6000000000000005e+00 0.0000000000000000e+00 0.0000000000000000e+00
6.7000000000000002e+00 0.0000000000000000e+00 0.0000000000000000e+00
6.8000000000000007e+00 0.0000000000000000e+00 0.0000000000000000e+00
6.9000000000000004e+00 0.0000000000000000e+00 0.0000000000000000e+00
7.0000000000000000e+00 0.0000000000000000e+00 0.0000000000000000e+00
7.1000000000000005e+00 0.0000000000000000e+00 0.0000000000000000e+00
7.2000000000000002e+00 0.0000000000000000e+00 0.0000000000000000e+00
7.3000000000000007e+00 0.0000000000000000e+00 0.0000000000000000e+00
7.4000000000000004e+00 0.0000000000000000e+00 0.0000000000000000e+00
7.5000000000000000e+00 0.0000000000000000e+00 0.0000000000000000e+00
7.6000000000000005e+00 0.0000000000000000e+00 0.0000000000000000e+00
7.7000000000000002e+00 0.0000000000000000e+00 0.0000000000000000e+00
7.8000000000000007e+00 0.0000000000000000e+00 0.0000000000000000e+00
7.9000000000000004e+00 0.0000000000000000e+00 0.0000000000000000e+00
8.0000000000000000e+00 0.0000000000000000e+00 0.0000000000000000e+00
8.0999999999999996e+00 0.0000000000000000e+00 0.0000000000000000e+00
8.2000000000000011e+00 0.0000000000000000e+00 0.0000000000000000e+00
8.3000000000000007e+00 0.0000000000000000e+00 0.0000000000000000e+00
8.4000000000000004e+00 0.0000000000000000e+00 0.0000000000000000e+00
8.5000000000000000e+00 0.0000000000000000e+00 0.0000000000000000e+00
8.5999999999999996e+00 0.0000000000000000e+00 0.0000000000000000e+00
8.7000000000000011e+00 0.0000000000000000e+00 0.0000000000000000e+00
8.8000000000000007e+00 0.0000000000000000e+00 0.0000000000000000e+00
8.9000000000000004e+00 0.0000000000000000e+00 0.0000000000000000e+00
9.0000000000000000e+00 0.0000000000000000e+00 0.0000000000000000e+00
9.0999999999999996e+00 0.0000000000000000e+00 0.0000000000000000e+00
9.2000000000000011e+00 0.0000000000000000e+00 0.0000000000000000e+00
9.3000000000000007e+00 0.0000000000000000e+00 0.0000000000000000e+00
9.4000000000000004e+00 0.0000000000000000e+00 0.0000000000000000e+00
9.5000000000000000e+00 0.0000000000000000e+00 0.0000000000000000e+00
9.6000000000000014e+00 0.0000000000000000e+00 0.0000000000000000e+00
9.7000000000000011e+00 0.0000000000000000e+00 0.0000000000000000e+00
9.8000000000000007e+00 0.0000000000000000e+00 0.0000000000000000e+00
9.9000000000000004e+00 0.0000000000000000e+00 0.0000000000000000e+00
1.0000000000000000e+01 0.0000000000000000e+00 0.0000000000000000e+00

POINT_DATA 101

VECTORS velocity float
3.4249394300972056e+00 0.0000000000000000e+00 0.0000000000000000e+00
3.4245732475975839e+00 0.0000000000000000e+00 0.0000000000000000e+00
3.4241634216716537e+00 0.0000000000000000e+00 0.0000000000000000e+00
3.4237357142588771e+00 0.0000000000000000e+00 0.0000000000000000e+00
3.4233028741594680e+00 0.0000000000000000e+00 0.0000000000000000e+00
3.4228715742202391e+00 0.0000000000000000e+00 0.0000000000000000e+00
3.4224449941805108e+00 0.0000000000000000e+00 0.0000000000000000e+00
3.4220263351342957e+00 0.0000000000000000e+00 0.0000000000000000e+00
3.4216144994641144e+00 0.0000000000000000e+00 0.0000000000000000e+00
3.4212060351614988e+00 0.0000000000000000e+00 0.0000000000000000e+00
3.4208015401076293e+00 0.0000000000000000e+00 0.0000000000000000e+00
3.4204018864696022e+00 0.0000000000000000e+00 0.0000000000000000e+00
3.4200073169183618e+00 0.0000000000000000e+00 0.0000000000000000e+00
3.4196186027909916e+00 0.0000000000000000e+00 0.0000000000000000e+00
3.4192361893448626e+00 0.0000000000000000e+00 0.0000000000000000e+00
3.4188599734112146e+00 0.0000000000000000e+00 0.0000000000000000e+00
3.4184880213902651e+00 0.0000000000000000e+00 0.0000000000000000e+00
3.4181187897795047e+00 0.0000000000000000e+00 0.0000000000000000e+00
3.4177532497262084e+00 0.0000000000000000e+00 0.0000000000000000e+00
3.4173919278879623e+00 0.0000000000000000e+00 0.0000000000000000e+00
3.4170351980887896e+00 0.0000000000000000e+00 0.0000000000000000e+00
3.4166837754462369e+00 0.0000000000000000e+00 0.0000000000000000e+00
3.4163389177103247e+00 0.0000000000000000e+00 0.0000000000000000e+00
3.4160015750131412e+00 0.0000000000000000e+00 0.0000000000000000e+00
3.4156693183400080e+00 0.0000000000000000e+00 0.0000000000000000e+00
3.4153406445441816e+00 0.0000000000000000e+00 0.0000000000000000e+00
3.4150170341496304e+00 0.0000000000000000e+00 0.0000000000000000e+00
3.4146986013612026e+00 0.0000000000000000e+00 0.0000000000000000e+00
3.4143854518658778e+00 0.0000000000000000e+00 0.0000000000000000e+00
3.4140771143856496e+00 0.0000000000000000e+00 0.0000000000000000e+00
3.4137731511492486e+00 0.0000000000000000e+00 0.0000000000000000e+00
3.4134739145936286e+00 0.0000000000000000e+00 0.0000000000000000e+00
3.4131798182138291e+00 0.0000000000000000e+00 0.0000000000000000e+00
3.4128914766610463e+00 0.0000000000000000e+00 0.0000000000000000e+00
3.4126087852154021e+00 0.0000000000000000e+00 0.0000000000000000e+00
3.4123314478302844e+00 0.0000000000000000e+00 0.0000000000000000e+00
3.4120593676374322e+00 0.0000000000000000e+00 0.0000000000000000e+00
3.4117924729302875e+00 0.0000000000000000e+00 0.0000000000000000e+00
3.4115308245319453e+00 0.0000000000000000e+00 0.0000000000000000e+00
3.4112742170640389e+00 0.0000000000000000e+00 0.0000000000000000e+00
3.4110225806222050e+00 0.0000000000000000e+00 0.0000000000000000e+00
3.4107761382798665e+00 0.0000000000000000e+00 0.0000000000000000e+00
3.4105349892293786e+00 0.0000000000000000e+00 0.0000000000000000e+00
3.4102991759285954e+00 0.0000000000000000e+00 0.0000000000000000e+00
3.4100687180084877e+00 0.0000000000000000e+00 0.0000000000000000e+00
3.4098436261686378e+00 0.0000000000000000e+00 0.0000000000000000e+00
3.4096239073420032e+00 0.0000000000000000e+00 0.0000000000000000e+00
3.4094095652549656e+00 0.0000000000000000e+00 0.0000000000000000e+00
3.4092006038447891e+00 0.0000000000000000e+00 0.0000000000000000e+00
3.4089970271075991e+00 0.0000000000000000e+00 0.0000000000000000e+00
3.4087988383272907e+00 0.0000000000000000e+00 0.0000000000000000e+00
3.4086060414066948e+00 0.0000000000000000e+00 0.0000000000000000e+00
3.4084186395566007e+00 0.0000000000000000e+00 0.0000000000000000e+00
3.4082366354609572e+00 0.0000000000000000e+00 0.0000000000000000e+00
3.4080600323290011e+00 0.0000000000000000e+00 0.0000000000000000e+00
3.4078888336619371e+00 0.0000000000000000e+00 0.0000000000000000e+00
3.4077230422333362e+00 0.0000000000000000e+00 0.0000000000000000e+00
3.4075626608610308e+00 0.0000000000000000e+00 0.0000000000000000e+00
3.4074076927435422e+00 0.0000000000000000e+00 0.0000000000000000e+00
3.4072581406334743e+00 0.0000000000000000e+00 0.0000000000000000e+00
3.4071140069581891e+00 0.0000000000000000e+00 0.0000000000000000e+00
3.4069752943192735e+00 0.0000000000000000e+00 0.0000000000000000e+00
3.4068420052524613e+00 0.0000000000000000e+00 0.0000000000000000e+00
3.4067141420750739e+00 0.0000000000000000e+00 0.0000000000000000e+00
3.4065917071554539e+00 0.0000000000000000e+00 0.0000000000000000e+00
3.4064747028273299e+00 0.0000000000000000e+00 0.0000000000000000e+00
3.4063631312623941e+00 0.0000000000000000e+00 0.0000000000000000e+00
3.4062569946720842e+00 0.0000000000000000e+00 0.0000000000000000e+00
3.4061562951435698e+00 0.0000000000000000e+00 0.0000000000000000e+00
3.4060610345790359e+00 0.0000000000000000e+00 0.0000000000000000e+00
3.4059712148273125e+00 0.0000000000000000e+00 0.0000000000000000e+00
3.4058868376622011e+00 0.0000000000000000e+00 0.0000000000000000e+00
3.4058079047231380e+00 0.0000000000000000e+00 0.0000000000000000e+00
3.4057344175527815e+00 0.0000000000000000e+00 0.0000000000000000e+00
3.4056663775744727e+00 0.0000000000000000e+00 0.0000000000000000e+00
3.4056037862219481e+00 0.0000000000000000e+00 0.0000000000000000e+00
3.4055466448980360e+00 0.0000000000000000e+00 0.0000000000000000e+00
3.4054949548867355e+00 0.0000000000000000e+00 0.0000000000000000e+00
3.4054487172810424e+00 0.0000000000000000e+00 0.0000000000000000e+00
3.4054079328145170e+00 0.0000000000000000e+00 0.0000000000000000e+00
3.4053726028269145e+00 0.0000000000000000e+00 0.0000000000000000e+00
3.4053427282962230e+00 0.0000000000000000e+00 0.0000000000000000e+00
3.4053183099188709e+00 0.0000000000000000e+00 0.0000000000000000e+00
3.4052993482203853e+00 0.0000000000000000e+00 0.0000000000000000e+00
3.4052858441067104e+00 0.0000000000000000e+00 0.0000000000000000e+00
3.4052777983178562e+00 0.0000000000000000e+00 0.0000000000000000e+00
3.4052752117577341e+00 0.0000000000000000e+00 0.0000000000000000e+00
3.4052780852522253e+00 0.0000000000000000e+00 0.0000000000000000e+00
3.4052864172750796e+00 0.0000000000000000e+00 0.0000000000000000e+00
3.4053002088923026e+00 0.0000000000000000e+00 0.0000000000000000e+00
3.4053194590407641e+00 0.0000000000000000e+00 0.0000000000000000e+00
3.4053441731465610e+00 0.0000000000000000e+00 0.0000000000000000e+00
3.4053743404850598e+00 0.0000000000000000e+00 0.0000000000000000e+00
3.4054099845451122e+00 0.0000000000000000e+00 0.0000000000000000e+00
3.4054510498665147e+00 0.0000000000000000e+00 0.0000000000000000e+00
3.4054976620095845e+00 0.0000000000000000e+00 0.0000000000000000e+00
3.4055495305919106e+00 0.0000000000000000e+00 0.0000000000000000e+00
3.4056073215075138e+00 0.0000000000000000e+00 0.0000000000000000e+00
3.4056695097215841e+00 0.0000000000000000e+00 0.0000000000000000e+00
3.4057395639200956e+00 0.0000000000000000e+00 0.0000000000000000e+00
3.4058096181186071e+00 0.0000000000000000e+00 0.0000000000000000e+00


SCALARS pressure float
LOOKUP_TABLE default
2.6280729795204142e+01
2.6030106812069917e+01
2.5779483828935696e+01
2.5528661544727754e+01
2.5277563361647136e+01
2.5026151898833952e+01
2.4774407942859920e+01
2.4522323284328149e+01
2.4269888249384906e+01
2.4017107738371294e+01
2.3763996323748632e+01
2.3510554754348238e+01
2.3256782756617461e+01
2.3002682724343920e+01
2.2748255904091923e+01
2.2493504263495613e+01
2.2238431621052719e+01
2.1983047812373187e+01
2.1727359676820530e+01
2.1471366846565449e+01
2.1215071744665185e+01
2.0958476927495010e+01
2.0701583643501920e+01
2.0444391031488216e+01
2.0186898491983374e+01
1.9929116818861516e+01
1.9671053137263140e+01
1.9412705692694175e+01
1.9154077289202295e+01
1.8895170654629172e+01
1.8635990689035641e+01
1.8376542345749709e+01
1.8116827825571217e+01
1.7856849152204806e+01
1.7596607385961661e+01
1.7336105945605727e+01
1.7075348957929293e+01
1.6814339897436678e+01
1.6553082163119065e+01
1.6291578742896650e+01
1.6029833450619851e+01
1.5767849378318592e+01
1.5505628802416629e+01
1.5243174484749652e+01
1.4980489398331658e+01
1.4717576602652738e+01
1.4454439192715641e+01
1.4191080280914148e+01
1.3927502997530402e+01
1.3663710478239148e+01
1.3399705864309229e+01
1.3135492304557799e+01
1.2871072951078053e+01
1.2606450963844328e+01
1.2341629510129383e+01
1.2076611760783125e+01
1.1811400890848544e+01
1.1546000083147190e+01
1.1280412525058384e+01
1.1014641407745092e+01
1.0748689928809076e+01
1.0482561291767894e+01
1.0216258704509736e+01
9.9497853801309777e+00
9.6831445368946358e+00
9.4163393972890095e+00
9.1493731883481466e+00
8.8822491419886713e+00
8.6149704942119758e+00
8.3475404856136262e+00
8.0799623615229237e+00
7.8122393715113185e+00
7.5443747695007062e+00
7.2763718139805258e+00
7.0082337676669297e+00
6.7399638975238583e+00
6.4715654740946276e+00
6.2030417714216322e+00
5.9343960674833847e+00
5.6656316444312553e+00
5.3967517899171220e+00
5.1277597924083276e+00
4.8586589445931754e+00
4.5894525434680906e+00
4.3201438898063129e+00
4.0507362860282843e+00
3.7812330378703987e+00
3.5116374527404139e+00
3.2419528408580534e+00
2.9721825257512520e+00
2.7023298237079167e+00
2.4323980601066189e+00
2.1623905410302569e+00
1.8923106284194084e+00
1.6221615759283579e+00
1.3519468929509797e+00
1.0816695147585309e+00
8.1133369352022211e-01
5.4094068317320820e-01
2.7049855633950654e-01
0.0000000000000000e+00


SCALARS diameter float
LOOKUP_TABLE default
1.0023875888438198e+00
1.0023589337979621e+00
1.0023327508680773e+00
1.0023091064198657e+00
1.0022867172699954e+00
1.0022642533623536e+00
1.0022416827100282e+00
1.0022179361308166e+00
1.0021933231868589e+00
1.0021703430583508e+00
1.0021477427944698e+00
1.0021250713059948e+00
1.0021023690341526e+00
1.0020794439113383e+00
1.0020557582276917e+00
1.0020318187377897e+00
1.0020078448286460e+00
1.0019851837611171e+00
1.0019628556314981e+00
1.0019406715942512e+00
1.0019184052607610e+00
1.0018959135728043e+00
1.0018726136000531e+00
1.0018482910075310e+00
1.0018238761893616e+00
1.0018008491861103e+00
1.0017774819615053e+00
1.0017540268862368e+00
1.0017305526526339e+00
1.0017070947354783e+00
1.0016840618340324e+00
1.0016609918057868e+00
1.0016378979546647e+00
1.0016144175333295e+00
1.0015907387373428e+00
1.0015670400993302e+00
1.0015433195999681e+00
1.0015195764401981e+00
1.0014958107879555e+00
1.0014720329653983e+00
1.0014483907885510e+00
1.0014247237091554e+00
1.0014010320864501e+00
1.0013773173029050e+00
1.0013535798919737e+00
1.0013298200638823e+00
1.0013060380428607e+00
1.0012822348254935e+00
1.0012584109568019e+00
1.0012345662198161e+00
1.0012107014199783e+00
1.0011868166375009e+00
1.0011629122673269e+00
1.0011389890929572e+00
1.0011150473648653e+00
1.0010910872385508e+00
1.0010671091528565e+00
1.0010431136770988e+00
1.0010191009298459e+00
1.0009950713167757e+00
1.0009710253757056e+00
1.0009469634701968e+00
1.0009228858815777e+00
1.0008987930201334e+00
1.0008746852789501e+00
1.0008505629544275e+00
1.0008264264802984e+00
1.0008022761707800e+00
1.0007781123892667e+00
1.0007539355369828e+00
1.0007297460192903e+00
1.0007055441725994e+00
1.0006813304150832e+00
1.0006571050795003e+00
1.0006328685989987e+00
1.0006086213041510e+00
1.0005843635264691e+00
1.0005600957122147e+00
1.0005358181441368e+00
1.0005115315368878e+00
1.0004872357985379e+00
1.0004629314269651e+00
1.0004386188170915e+00
1.0004142984531290e+00
1.0003899706262644e+00
1.0003656354305133e+00
1.0003412934996367e+00
1.0003169445578215e+00
1.0002925904397446e+00
1.0002682305062840e+00
1.0002438655716723e+00
1.0002194948382639e+00
1.0001951197841548e+00
1.0001707402116415e+00
1.0001463570803624e+00
1.0001219706828401e+00
1.0000975811717185e+00
1.0000731889625443e+00
1.0000487946638408e+00
1.0000243990711062e+00
1.0000000015316572e+00


SCALARS iters float
LOOKUP_TABLE default
3.0000000000000000e+00
3.0000000000000000e+00
3.0000000000000000e+00
3.0000000000000000e+00
3.0000000000000000e+00
3.0000000000000000e+00
3.0000000000000000e+00
3.0000000000000000e+00
3.0000000000000000e+00
3.0000000000000000e+00
3.0000000000000000e+00
3.0000000000000000e+00
3.0000000000000000e+00
3.0000000000000000e+00
3.0000000000000000e+00
3.0000000000000000e+00
3.0000000000000000e+00
3.0000000000000000e+00
3.0000000000000000e+00
3.0000000000000000e+00
3.0000000000000000e+00
3.0000000000000000e+00
3.0000000000000000e+00
3.0000000000000000e+00
3.0000000000000000e+00
3.0000000000000000e+00
3.0000000000000000e+00
3.0000000000000000e+00
3.0000000000000000e+00
3.0000000000000000e+00
3.0000000000000000e+00
3.0000000000000000e+00
3.0000000000000000e+00
3.0000000000000000e+00
3.0000000000000000e+00
3.0000000000000000e+00
3.0000000000000000e+00
3.0000000000000000e+00
3.0000000000000000e+00
3.0000000000000000e+00
3.0000000000000000e+00
3.0000000000000000e+00
3.0000000000000000e+00
3.0000000000000000e+00
3.0000000000000000e+00
3.0000000000000000e+00
3.0000000000000000e+00
3.0000000000000000e+00
3.0000000000000000e+00
3.0000000000000000e+00
3.0000000000000000e+00
3.0000000000000000e+00
3.0000000000000000e+00
3.0000000000000000e+00
3.0000000000000000e+00
3.0000000000000000e+00
3.0000000000000000e+00
3.0000000000000000e+00
3.0000000000000000e+00
3.0000000000000000e+00
3.0000000000000000e+00
3.0000000000000000e+00
3.0000000000000000e+00
3.0000000000000000e+00
3.0000000000000000e+00
3.0000000000000000e+00
3.0000000000000000e+00
3.0000000000000000e+00
3.0000000000000000e+00
3.0000000000000000e+00
3.0000000000000000e+00
3.0000000000000000e+00
3.0000000000000000e+00
3.0000000000000000e+00
3.0000000000000000e+00
3.0000000000000000e+00
3.0000000000000000e+00
3.0000000000000000e+00
3.0000000000000000e+00
3.0000000000000000e+00
3.0000000000000000e+00
3.0000000000000000e+00
3.0000000000000000e+00
3.0000000000000000e+00
3.0000000000000000e+00
3.0000000000000000e+00
3.0000000000000000e+00
3.0000000000000000e+00
3.0000000000000000e+00
3.0000000000000000e+00
3.0000000000000000e+00
3.0000000000000000e+00
3.0000000000000000e+00
3.0000000000000000e+00
3.0000000000000000e+00
3.0000000000000000e+00
3.0000000000000000e+00
3.0000000000000000e+00
3.0000000000000000e+00
3.0000000000000000e+00
3.0000000000000000e+00


