# vtk DataFile Version 2.0

ASCII

DATASET UNSTRUCTURED_GRID

POINTS 101 float

0.0000000000000000e+00 0.0000000000000000e+00 0.0000000000000000e+00
1.0000000000000001e-01 0.0000000000000000e+00 0.0000000000000000e+00
2.0000000000000001e-01 0.0000000000000000e+00 0.0000000000000000e+00
3.0000000000000004e-01 0.0000000000000000e+00 0.0000000000000000e+00
4.0000000000000002e-01 0.0000000000000000e+00 0.0000000000000000e+00
5.0000000000000000e-01 0.0000000000000000e+00 0.0000000000000000e+00
6.0000000000000009e-01 0.0000000000000000e+00 0.0000000000000000e+00
7.0000000000000007e-01 0.0000000000000000e+00 0.0000000000000000e+00
8.0000000000000004e-01 0.0000000000000000e+00 0.0000000000000000e+00
9.0000000000000002e-01 0.0000000000000000e+00 0.0000000000000000e+00
1.0000000000000000e+00 0.0000000000000000e+00 0.0000000000000000e+00
1.1000000000000001e+00 0.0000000000000000e+00 0.0000000000000000e+00
1.2000000000000002e+00 0.0000000000000000e+00 0.0000000000000000e+00
1.3000000000000000e+00 0.0000000000000000e+00 0.0000000000000000e+00
1.4000000000000001e+00 0.0000000000000000e+00 0.0000000000000000e+00
1.5000000000000000e+00 0.0000000000000000e+00 0.0000000000000000e+00
1.6000000000000001e+00 0.0000000000000000e+00 0.0000000000000000e+00
1.7000000000000002e+00 0.0000000000000000e+00 0.0000000000000000e+00
1.8000000000000000e+00 0.0000000000000000e+00 0.0000000000000000e+00
1.9000000000000001e+00 0.0000000000000000e+00 0.0000000000000000e+00
2.0000000000000000e+00 0.0000000000000000e+00 0.0000000000000000e+00
2.1000000000000001e+00 0.0000000000000000e+00 0.0000000000000000e+00
2.2000000000000002e+00 0.0000000000000000e+00 0.0000000000000000e+00
2.3000000000000003e+00 0.0000000000000000e+00 0.0000000000000000e+00
2.4000000000000004e+00 0.0000000000000000e+00 0.0000000000000000e+00
2.5000000000000000e+00 0.0000000000000000e+00 0.0000000000000000e+00
2.6000000000000001e+00 0.0000000000000000e+00 0.0000000000000000e+00
2.7000000000000002e+00 0.0000000000000000e+00 0.0000000000000000e+00
2.8000000000000003e+00 0.0000000000000000e+00 0.0000000000000000e+00
2.9000000000000004e+00 0.0000000000000000e+00 0.0000000000000000e+00
3.0000000000000000e+00 0.0000000000000000e+00 0.0000000000000000e+00
3.1000000000000001e+00 0.0000000000000000e+00 0.0000000000000000e+00
3.2000000000000002e+00 0.0000000000000000e+00 0.0000000000000000e+00
3.3000000000000003e+00 0.0000000000000000e+00 0.0000000000000000e+00
3.4000000000000004e+00 0.0000000000000000e+00 0.0000000000000000e+00
3.5000000000000000e+00 0.0000000000000000e+00 0.0000000000000000e+00
3.6000000000000001e+00 0.0000000000000000e+00 0.0000000000000000e+00
3.7000000000000002e+00 0.0000000000000000e+00 0.0000000000000000e+00
3.8000000000000003e+00 0.0000000000000000e+00 0.0000000000000000e+00
3.9000000000000004e+00 0.0000000000000000e+00 0.0000000000000000e+00
4.0000000000000000e+00 0.0000000000000000e+00 0.0000000000000000e+00
4.1000000000000005e+00 0.0000000000000000e+00 0.0000000000000000e+00
4.2000000000000002e+00 0.0000000000000000e+00 0.0000000000000000e+00
4.2999999999999998e+00 0.0000000000000000e+00 0.0000000000000000e+00
4.4000000000000004e+00 0.0000000000000000e+00 0.0000000000000000e+00
4.5000000000000000e+00 0.0000000000000000e+00 0.0000000000000000e+00
4.6000000000000005e+00 0.0000000000000000e+00 0.0000000000000000e+00
4.7000000000000002e+00 0.0000000000000000e+00 0.0000000000000000e+00
4.8000000000000007e+00 0.0000000000000000e+00 0.0000000000000000e+00
4.9000000000000004e+00 0.0000000000000000e+00 0.0000000000000000e+00
5.0000000000000000e+00 0.0000000000000000e+00 0.0000000000000000e+00
5.1000000000000005e+00 0.0000000000000000e+00 0.0000000000000000e+00
5.2000000000000002e+00 0.0000000000000000e+00 0.0000000000000000e+00
5.3000000000000007e+00 0.0000000000000000e+00 0.0000000000000000e+00
5.4000000000000004e+00 0.0000000000000000e+00 0.0000000000000000e+00
5.5000000000000000e+00 0.0000000000000000e+00 0.0000000000000000e+00
5.6000000000000005e+00 0.0000000000000000e+00 0.0000000000000000e+00
5.7000000000000002e+00 0.0000000000000000e+00 0.0000000000000000e+00
5.8000000000000007e+00 0.0000000000000000e+00 0.0000000000000000e+00
5.9000000000000004e+00 0.0000000000000000e+00 0.0000000000000000e+00
6.0000000000000000e+00 0.0000000000000000e+00 0.0000000000000000e+00
6.1000000000000005e+00 0.0000000000000000e+00 0.0000000000000000e+00
6.2000000000000002e+00 0.0000000000000000e+00 0.0000000000000000e+00
6.3000000000000007e+00 0.0000000000000000e+00 0.0000000000000000e+00
6.4000000000000004e+00 0.0000000000000000e+00 0.0000000000000000e+00
6.5000000000000000e+00 0.0000000000000000e+00 0.0000000000000000e+00
6.6000000000000005e+00 0.0000000000000000e+00 0.0000000000000000e+00
6.7000000000000002e+00 0.0000000000000000e+00 0.0000000000000000e+00
6.8000000000000007e+00 0.0000000000000000e+00 0.0000000000000000e+00
6.9000000000000004e+00 0.0000000000000000e+00 0.0000000000000000e+00
7.0000000000000000e+00 0.0000000000000000e+00 0.0000000000000000e+00
7.1000000000000005e+00 0.0000000000000000e+00 0.0000000000000000e+00
7.2000000000000002e+00 0.0000000000000000e+00 0.0000000000000000e+00
7.3000000000000007e+00 0.0000000000000000e+00 0.0000000000000000e+00
7.4000000000000004e+00 0.0000000000000000e+00 0.0000000000000000e+00
7.5000000000000000e+00 0.0000000000000000e+00 0.0000000000000000e+00
7.6000000000000005e+00 0.0000000000000000e+00 0.0000000000000000e+00
7.7000000000000002e+00 0.0000000000000000e+00 0.0000000000000000e+00
7.8000000000000007e+00 0.0000000000000000e+00 0.0000000000000000e+00
7.9000000000000004e+00 0.0000000000000000e+00 0.0000000000000000e+00
8.0000000000000000e+00 0.0000000000000000e+00 0.0000000000000000e+00
8.0999999999999996e+00 0.0000000000000000e+00 0.0000000000000000e+00
8.2000000000000011e+00 0.0000000000000000e+00 0.0000000000000000e+00
8.3000000000000007e+00 0.0000000000000000e+00 0.0000000000000000e+00
8.4000000000000004e+00 0.0000000000000000e+00 0.0000000000000000e+00
8.5000000000000000e+00 0.0000000000000000e+00 0.0000000000000000e+00
8.5999999999999996e+00 0.0000000000000000e+00 0.0000000000000000e+00
8.7000000000000011e+00 0.0000000000000000e+00 0.0000000000000000e+00
8.8000000000000007e+00 0.0000000000000000e+00 0.0000000000000000e+00
8.9000000000000004e+00 0.0000000000000000e+00 0.0000000000000000e+00
9.0000000000000000e+00 0.0000000000000000e+00 0.0000000000000000e+00
9.0999999999999996e+00 0.0000000000000000e+00 0.0000000000000000e+00
9.2000000000000011e+00 0.0000000000000000e+00 0.0000000000000000e+00
9.3000000000000007e+00 0.0000000000000000e+00 0.0000000000000000e+00
9.4000000000000004e+00 0.0000000000000000e+00 0.0000000000000000e+00
9.5000000000000000e+00 0.0000000000000000e+00 0.0000000000000000e+00
9.6000000000000014e+00 0.0000000000000000e+00 0.0000000000000000e+00
9.7000000000000011e+00 0.0000000000000000e+00 0.0000000000000000e+00
9.8000000000000007e+00 0.0000000000000000e+00 0.0000000000000000e+00
9.9000000000000004e+00 0.0000000000000000e+00 0.0000000000000000e+00
1.0000000000000000e+01 0.0000000000000000e+00 0.0000000000000000e+00

POINT_DATA 101

VECTORS velocity float
3.7646006574154058e+00 0.0000000000000000e+00 0.0000000000000000e+00
3.7650869420406954e+00 0.0000000000000000e+00 0.0000000000000000e+00
3.7655524964616487e+00 0.0000000000000000e+00 0.0000000000000000e+00
3.7660022251303857e+00 0.0000000000000000e+00 0.0000000000000000e+00
3.7664405307368609e+00 0.0000000000000000e+00 0.0000000000000000e+00
3.7668718747601195e+00 0.0000000000000000e+00 0.0000000000000000e+00
3.7673005532436608e+00 0.0000000000000000e+00 0.0000000000000000e+00
3.7677275451331016e+00 0.0000000000000000e+00 0.0000000000000000e+00
3.7681507554086409e+00 0.0000000000000000e+00 0.0000000000000000e+00
3.7685693676738996e+00 0.0000000000000000e+00 0.0000000000000000e+00
3.7689837284840451e+00 0.0000000000000000e+00 0.0000000000000000e+00
3.7693940627797256e+00 0.0000000000000000e+00 0.0000000000000000e+00
3.7698014291616579e+00 0.0000000000000000e+00 0.0000000000000000e+00
3.7702083597080782e+00 0.0000000000000000e+00 0.0000000000000000e+00
3.7706148421490138e+00 0.0000000000000000e+00 0.0000000000000000e+00
3.7710199934663002e+00 0.0000000000000000e+00 0.0000000000000000e+00
3.7714202335252862e+00 0.0000000000000000e+00 0.0000000000000000e+00
3.7718132597348890e+00 0.0000000000000000e+00 0.0000000000000000e+00
3.7722023714751929e+00 0.0000000000000000e+00 0.0000000000000000e+00
3.7725894444598542e+00 0.0000000000000000e+00 0.0000000000000000e+00
3.7729739779231783e+00 0.0000000000000000e+00 0.0000000000000000e+00
3.7733553592314544e+00 0.0000000000000000e+00 0.0000000000000000e+00
3.7737336199069835e+00 0.0000000000000000e+00 0.0000000000000000e+00
3.7741087126011874e+00 0.0000000000000000e+00 0.0000000000000000e+00
3.7744814892153893e+00 0.0000000000000000e+00 0.0000000000000000e+00
3.7748519313638447e+00 0.0000000000000000e+00 0.0000000000000000e+00
3.7752178039517634e+00 0.0000000000000000e+00 0.0000000000000000e+00
3.7755797338614334e+00 0.0000000000000000e+00 0.0000000000000000e+00
3.7759380626118300e+00 0.0000000000000000e+00 0.0000000000000000e+00
3.7762923405816333e+00 0.0000000000000000e+00 0.0000000000000000e+00
3.7766421726284078e+00 0.0000000000000000e+00 0.0000000000000000e+00
3.7769879416573389e+00 0.0000000000000000e+00 0.0000000000000000e+00
3.7773301639701931e+00 0.0000000000000000e+00 0.0000000000000000e+00
3.7776694904387549e+00 0.0000000000000000e+00 0.0000000000000000e+00
3.7780057161811391e+00 0.0000000000000000e+00 0.0000000000000000e+00
3.7783385312815057e+00 0.0000000000000000e+00 0.0000000000000000e+00
3.7786678105077334e+00 0.0000000000000000e+00 0.0000000000000000e+00
3.7789934823997529e+00 0.0000000000000000e+00 0.0000000000000000e+00
3.7793155352737098e+00 0.0000000000000000e+00 0.0000000000000000e+00
3.7796338662241009e+00 0.0000000000000000e+00 0.0000000000000000e+00
3.7799483324054663e+00 0.0000000000000000e+00 0.0000000000000000e+00
3.7802589971952680e+00 0.0000000000000000e+00 0.0000000000000000e+00
3.7805658726162621e+00 0.0000000000000000e+00 0.0000000000000000e+00
3.7808689550935335e+00 0.0000000000000000e+00 0.0000000000000000e+00
3.7811682353484368e+00 0.0000000000000000e+00 0.0000000000000000e+00
3.7814637016131347e+00 0.0000000000000000e+00 0.0000000000000000e+00
3.7817553416316008e+00 0.0000000000000000e+00 0.0000000000000000e+00
3.7820431424672249e+00 0.0000000000000000e+00 0.0000000000000000e+00
3.7823270918469833e+00 0.0000000000000000e+00 0.0000000000000000e+00
3.7826071775917964e+00 0.0000000000000000e+00 0.0000000000000000e+00
3.7828833871477840e+00 0.0000000000000000e+00 0.0000000000000000e+00
3.7831557090143377e+00 0.0000000000000000e+00 0.0000000000000000e+00
3.7834241310952259e+00 0.0000000000000000e+00 0.0000000000000000e+00
3.7836886414187014e+00 0.0000000000000000e+00 0.0000000000000000e+00
3.7839492287436438e+00 0.0000000000000000e+00 0.0000000000000000e+00
3.7842058820476838e+00 0.0000000000000000e+00 0.0000000000000000e+00
3.7844585899955643e+00 0.0000000000000000e+00 0.0000000000000000e+00
3.7847073417279296e+00 0.0000000000000000e+00 0.0000000000000000e+00
3.7849521268683146e+00 0.0000000000000000e+00 0.0000000000000000e+00
3.7851929348040931e+00 0.0000000000000000e+00 0.0000000000000000e+00
3.7854297549787588e+00 0.0000000000000000e+00 0.0000000000000000e+00
3.7856625776089960e+00 0.0000000000000000e+00 0.0000000000000000e+00
3.7858913929719522e+00 0.0000000000000000e+00 0.0000000000000000e+00
3.7861161910922463e+00 0.0000000000000000e+00 0.0000000000000000e+00
3.7863369624070171e+00 0.0000000000000000e+00 0.0000000000000000e+00
3.7865536975889831e+00 0.0000000000000000e+00 0.0000000000000000e+00
3.7867663874533246e+00 0.0000000000000000e+00 0.0000000000000000e+00
3.7869750231058363e+00 0.0000000000000000e+00 0.0000000000000000e+00
3.7871795958016454e+00 0.0000000000000000e+00 0.0000000000000000e+00
3.7873800969229752e+00 0.0000000000000000e+00 0.0000000000000000e+00
3.7875765180875645e+00 0.0000000000000000e+00 0.0000000000000000e+00
3.7877688511656831e+00 0.0000000000000000e+00 0.0000000000000000e+00
3.7879570882087656e+00 0.0000000000000000e+00 0.0000000000000000e+00
3.7881412213035004e+00 0.0000000000000000e+00 0.0000000000000000e+00
3.7883212428355968e+00 0.0000000000000000e+00 0.0000000000000000e+00
3.7884971452304343e+00 0.0000000000000000e+00 0.0000000000000000e+00
3.7886689212105003e+00 0.0000000000000000e+00 0.0000000000000000e+00
3.7888365637065116e+00 0.0000000000000000e+00 0.0000000000000000e+00
3.7890000658711931e+00 0.0000000000000000e+00 0.0000000000000000e+00
3.7891594212229496e+00 0.0000000000000000e+00 0.0000000000000000e+00
3.7893146232247528e+00 0.0000000000000000e+00 0.0000000000000000e+00
3.7894656657044945e+00 0.0000000000000000e+00 0.0000000000000000e+00
3.7896125423959925e+00 0.0000000000000000e+00 0.0000000000000000e+00
3.7897552471287224e+00 0.0000000000000000e+00 0.0000000000000000e+00
3.7898937741686138e+00 0.0000000000000000e+00 0.0000000000000000e+00
3.7900281186471858e+00 0.0000000000000000e+00 0.0000000000000000e+00
3.7901582756008452e+00 0.0000000000000000e+00 0.0000000000000000e+00
3.7902842389785421e+00 0.0000000000000000e+00 0.0000000000000000e+00
3.7904060030899562e+00 0.0000000000000000e+00 0.0000000000000000e+00
3.7905235629271483e+00 0.0000000000000000e+00 0.0000000000000000e+00
3.7906369154154240e+00 0.0000000000000000e+00 0.0000000000000000e+00
3.7907460566427855e+00 0.0000000000000000e+00 0.0000000000000000e+00
3.7908509833553303e+00 0.0000000000000000e+00 0.0000000000000000e+00
3.7909516849599241e+00 0.0000000000000000e+00 0.0000000000000000e+00
3.7910481751221741e+00 0.0000000000000000e+00 0.0000000000000000e+00
3.7911404018918198e+00 0.0000000000000000e+00 0.0000000000000000e+00
3.7912284912965375e+00 0.0000000000000000e+00 0.0000000000000000e+00
3.7913120984797373e+00 0.0000000000000000e+00 0.0000000000000000e+00
3.7913921110917590e+00 0.0000000000000000e+00 0.0000000000000000e+00
3.7914662242894459e+00 0.0000000000000000e+00 0.0000000000000000e+00
3.7915403374871328e+00 0.0000000000000000e+00 0.0000000000000000e+00


SCALARS pressure float
LOOKUP_TABLE default
1.8857344746255656e+01
1.8673034263098259e+01
1.8488723779940859e+01
1.8304353175994908e+01
1.8119893261388683e+01
1.7935325385868833e+01
1.7750633397943087e+01
1.7565801829887029e+01
1.7380829264136455e+01
1.7195725626750107e+01
1.7010495331174610e+01
1.6825138796939157e+01
1.6639657071859986e+01
1.6454047751303232e+01
1.6268301941613828e+01
1.6082419712093156e+01
1.5896405403359489e+01
1.5710274011809556e+01
1.5524035144773789e+01
1.5337677477246848e+01
1.5151194430560958e+01
1.4964588951933752e+01
1.4777865871685314e+01
1.4591028437100519e+01
1.4404079986953878e+01
1.4217016684990281e+01
1.4029837524837351e+01
1.3842553505113711e+01
1.3655164862646473e+01
1.3467672092359447e+01
1.3280078556142062e+01
1.3092387521448579e+01
1.2904599424178357e+01
1.2716713994925396e+01
1.2528730277873455e+01
1.2340650413452600e+01
1.2152477119965850e+01
1.1964212501521477e+01
1.1775858463557991e+01
1.1587416680214123e+01
1.1398889221816246e+01
1.1210278469377633e+01
1.1021586009157385e+01
1.0832813567792282e+01
1.0643962930660043e+01
1.0455035906141477e+01
1.0266034313247504e+01
1.0076959973957150e+01
9.8878147145871331e+00
9.6986003608896141e+00
9.5093187398763046e+00
9.3199716810126176e+00
9.1305610114295082e+00
8.9410885617106075e+00
8.7515561633140440e+00
8.5619656464162155e+00
8.3723188418612438e+00
8.1826175829386703e+00
7.9928637021572708e+00
7.8030590316003545e+00
7.6132054054090972e+00
7.4233046586520786e+00
7.2333586247077584e+00
7.0433691379358594e+00
6.8533380346577584e+00
6.6632671507689620e+00
6.4731583223031448e+00
6.2830133857199399e+00
6.0928341773523540e+00
5.9026225338802636e+00
5.7123802923623472e+00
5.5221092898698538e+00
5.3318113633984447e+00
5.1414883501632955e+00
4.9511420880707941e+00
4.7607744146776207e+00
4.5703871681732400e+00
4.3799821861923594e+00
4.1895613063486499e+00
3.9991263658825993e+00
3.8086792016596451e+00
3.6182216513117611e+00
3.4277555515162415e+00
3.2372827398474993e+00
3.0468050540941483e+00
2.8563243311797071e+00
2.6658424047236915e+00
2.4753611087255050e+00
2.2848822821307659e+00
2.0944077639701475e+00
1.9039393907203488e+00
1.7134789904743666e+00
1.5230283958926387e+00
1.3325894345342557e+00
1.1421639699128869e+00
9.5175375755846148e-01
7.6136083506076624e-01
5.7098649712464655e-01
3.8063396113716796e-01
1.9030150537863294e-01
0.0000000000000000e+00


SCALARS diameter float
LOOKUP_TABLE default
1.0017001708462396e+00
1.0016820121749073e+00
1.0016646965005678e+00
1.0016489599543039e+00
1.0016343104918974e+00
1.0016196769496322e+00
1.0016039547733526e+00
1.0015872550504554e+00
1.0015707631657900e+00
1.0015547501702990e+00
1.0015389287466516e+00
1.0015231232295987e+00
1.0015071774873150e+00
1.0014900197681205e+00
1.0014718463011736e+00
1.0014535653009817e+00
1.0014357191710785e+00
1.0014199805929569e+00
1.0014040381526952e+00
1.0013873282734025e+00
1.0013704353116326e+00
1.0013537590312123e+00
1.0013369539475721e+00
1.0013199588706851e+00
1.0013024030866926e+00
1.0012842925519136e+00
1.0012672821732673e+00
1.0012502651065212e+00
1.0012332463682929e+00
1.0012162629646861e+00
1.0011997083906532e+00
1.0011831437877485e+00
1.0011665471234792e+00
1.0011495604464278e+00
1.0011324186579798e+00
1.0011152748292087e+00
1.0010981279173126e+00
1.0010809774215992e+00
1.0010638235870111e+00
1.0010466717612263e+00
1.0010296017530413e+00
1.0010125258887710e+00
1.0009954446627489e+00
1.0009783586575021e+00
1.0009612680440105e+00
1.0009441729960453e+00
1.0009270737263434e+00
1.0009099703417412e+00
1.0008928631204626e+00
1.0008757516724662e+00
1.0008586365900207e+00
1.0008415175884491e+00
1.0008243948746789e+00
1.0008072687939522e+00
1.0007901392740972e+00
1.0007730063342430e+00
1.0007558701468022e+00
1.0007387308853493e+00
1.0007215884623240e+00
1.0007044430250100e+00
1.0006872948233587e+00
1.0006701438143346e+00
1.0006529899380676e+00
1.0006358334714598e+00
1.0006186745168175e+00
1.0006015131106585e+00
1.0005843493889006e+00
1.0005671834010132e+00
1.0005500152295050e+00
1.0005328449847881e+00
1.0005156727641984e+00
1.0004984986204155e+00
1.0004813226191684e+00
1.0004641448762150e+00
1.0004469654955241e+00
1.0004297845541579e+00
1.0004126022217197e+00
1.0003954184941140e+00
1.0003782335456288e+00
1.0003610473035029e+00
1.0003438599321084e+00
1.0003266714212644e+00
1.0003094819719207e+00
1.0002922917036625e+00
1.0002751008087389e+00
1.0002579089375647e+00
1.0002407161779845e+00
1.0002235228945826e+00
1.0002063297273776e+00
1.0001891361384077e+00
1.0001719424143225e+00
1.0001547473626367e+00
1.0001375525631426e+00
1.0001203575802795e+00
1.0001031628028700e+00
1.0000859681150853e+00
1.0000687736698515e+00
1.0000515795143623e+00
1.0000343858785576e+00
1.0000171927663020e+00
9.9999999964942865e-01


SCALARS iters float
LOOKUP_TABLE default
3.0000000000000000e+00
3.0000000000000000e+00
3.0000000000000000e+00
3.0000000000000000e+00
3.0000000000000000e+00
3.0000000000000000e+00
3.0000000000000000e+00
3.0000000000000000e+00
3.0000000000000000e+00
3.0000000000000000e+00
3.0000000000000000e+00
3.0000000000000000e+00
3.0000000000000000e+00
3.0000000000000000e+00
3.0000000000000000e+00
3.0000000000000000e+00
3.0000000000000000e+00
3.0000000000000000e+00
3.0000000000000000e+00
3.0000000000000000e+00
3.0000000000000000e+00
3.0000000000000000e+00
3.0000000000000000e+00
3.0000000000000000e+00
3.0000000000000000e+00
3.0000000000000000e+00
3.0000000000000000e+00
3.0000000000000000e+00
3.0000000000000000e+00
3.0000000000000000e+00
3.0000000000000000e+00
3.0000000000000000e+00
3.0000000000000000e+00
3.0000000000000000e+00
3.0000000000000000e+00
3.0000000000000000e+00
3.0000000000000000e+00
3.0000000000000000e+00
3.0000000000000000e+00
3.0000000000000000e+00
3.0000000000000000e+00
3.0000000000000000e+00
3.0000000000000000e+00
3.0000000000000000e+00
3.0000000000000000e+00
3.0000000000000000e+00
3.0000000000000000e+00
3.0000000000000000e+00
3.0000000000000000e+00
3.0000000000000000e+00
3.0000000000000000e+00
3.0000000000000000e+00
3.0000000000000000e+00
3.0000000000000000e+00
3.0000000000000000e+00
3.0000000000000000e+00
3.0000000000000000e+00
3.0000000000000000e+00
3.0000000000000000e+00
3.0000000000000000e+00
3.0000000000000000e+00
3.0000000000000000e+00
3.0000000000000000e+00
3.0000000000000000e+00
3.0000000000000000e+00
3.0000000000000000e+00
3.0000000000000000e+00
3.0000000000000000e+00
3.0000000000000000e+00
3.0000000000000000e+00
3.0000000000000000e+00
3.0000000000000000e+00
3.0000000000000000e+00
3.0000000000000000e+00
3.0000000000000000e+00
3.0000000000000000e+00
3.0000000000000000e+00
3.0000000000000000e+00
3.0000000000000000e+00
3.0000000000000000e+00
3.0000000000000000e+00
3.0000000000000000e+00
3.0000000000000000e+00
3.0000000000000000e+00
3.0000000000000000e+00
3.0000000000000000e+00
3.0000000000000000e+00
3.0000000000000000e+00
3.0000000000000000e+00
3.0000000000000000e+00
3.0000000000000000e+00
3.0000000000000000e+00
3.0000000000000000e+00
3.0000000000000000e+00
3.0000000000000000e+00
3.0000000000000000e+00
3.0000000000000000e+00
3.0000000000000000e+00
3.0000000000000000e+00
3.0000000000000000e+00
3.0000000000000000e+00


