# vtk DataFile Version 2.0

ASCII

DATASET UNSTRUCTURED_GRID

POINTS 101 float

0.0000000000000000e+00 0.0000000000000000e+00 0.0000000000000000e+00
1.0000000000000001e-01 0.0000000000000000e+00 0.0000000000000000e+00
2.0000000000000001e-01 0.0000000000000000e+00 0.0000000000000000e+00
3.0000000000000004e-01 0.0000000000000000e+00 0.0000000000000000e+00
4.0000000000000002e-01 0.0000000000000000e+00 0.0000000000000000e+00
5.0000000000000000e-01 0.0000000000000000e+00 0.0000000000000000e+00
6.0000000000000009e-01 0.0000000000000000e+00 0.0000000000000000e+00
7.0000000000000007e-01 0.0000000000000000e+00 0.0000000000000000e+00
8.0000000000000004e-01 0.0000000000000000e+00 0.0000000000000000e+00
9.0000000000000002e-01 0.0000000000000000e+00 0.0000000000000000e+00
1.0000000000000000e+00 0.0000000000000000e+00 0.0000000000000000e+00
1.1000000000000001e+00 0.0000000000000000e+00 0.0000000000000000e+00
1.2000000000000002e+00 0.0000000000000000e+00 0.0000000000000000e+00
1.3000000000000000e+00 0.0000000000000000e+00 0.0000000000000000e+00
1.4000000000000001e+00 0.0000000000000000e+00 0.0000000000000000e+00
1.5000000000000000e+00 0.0000000000000000e+00 0.0000000000000000e+00
1.6000000000000001e+00 0.0000000000000000e+00 0.0000000000000000e+00
1.7000000000000002e+00 0.0000000000000000e+00 0.0000000000000000e+00
1.8000000000000000e+00 0.0000000000000000e+00 0.0000000000000000e+00
1.9000000000000001e+00 0.0000000000000000e+00 0.0000000000000000e+00
2.0000000000000000e+00 0.0000000000000000e+00 0.0000000000000000e+00
2.1000000000000001e+00 0.0000000000000000e+00 0.0000000000000000e+00
2.2000000000000002e+00 0.0000000000000000e+00 0.0000000000000000e+00
2.3000000000000003e+00 0.0000000000000000e+00 0.0000000000000000e+00
2.4000000000000004e+00 0.0000000000000000e+00 0.0000000000000000e+00
2.5000000000000000e+00 0.0000000000000000e+00 0.0000000000000000e+00
2.6000000000000001e+00 0.0000000000000000e+00 0.0000000000000000e+00
2.7000000000000002e+00 0.0000000000000000e+00 0.0000000000000000e+00
2.8000000000000003e+00 0.0000000000000000e+00 0.0000000000000000e+00
2.9000000000000004e+00 0.0000000000000000e+00 0.0000000000000000e+00
3.0000000000000000e+00 0.0000000000000000e+00 0.0000000000000000e+00
3.1000000000000001e+00 0.0000000000000000e+00 0.0000000000000000e+00
3.2000000000000002e+00 0.0000000000000000e+00 0.0000000000000000e+00
3.3000000000000003e+00 0.0000000000000000e+00 0.0000000000000000e+00
3.4000000000000004e+00 0.0000000000000000e+00 0.0000000000000000e+00
3.5000000000000000e+00 0.0000000000000000e+00 0.0000000000000000e+00
3.6000000000000001e+00 0.0000000000000000e+00 0.0000000000000000e+00
3.7000000000000002e+00 0.0000000000000000e+00 0.0000000000000000e+00
3.8000000000000003e+00 0.0000000000000000e+00 0.0000000000000000e+00
3.9000000000000004e+00 0.0000000000000000e+00 0.0000000000000000e+00
4.0000000000000000e+00 0.0000000000000000e+00 0.0000000000000000e+00
4.1000000000000005e+00 0.0000000000000000e+00 0.0000000000000000e+00
4.2000000000000002e+00 0.0000000000000000e+00 0.0000000000000000e+00
4.2999999999999998e+00 0.0000000000000000e+00 0.0000000000000000e+00
4.4000000000000004e+00 0.0000000000000000e+00 0.0000000000000000e+00
4.5000000000000000e+00 0.0000000000000000e+00 0.0000000000000000e+00
4.6000000000000005e+00 0.0000000000000000e+00 0.0000000000000000e+00
4.7000000000000002e+00 0.0000000000000000e+00 0.0000000000000000e+00
4.8000000000000007e+00 0.0000000000000000e+00 0.0000000000000000e+00
4.9000000000000004e+00 0.0000000000000000e+00 0.0000000000000000e+00
5.0000000000000000e+00 0.0000000000000000e+00 0.0000000000000000e+00
5.1000000000000005e+00 0.0000000000000000e+00 0.0000000000000000e+00
5.2000000000000002e+00 0.0000000000000000e+00 0.0000000000000000e+00
5.3000000000000007e+00 0.0000000000000000e+00 0.0000000000000000e+00
5.4000000000000004e+00 0.0000000000000000e+00 0.0000000000000000e+00
5.5000000000000000e+00 0.0000000000000000e+00 0.0000000000000000e+00
5.6000000000000005e+00 0.0000000000000000e+00 0.0000000000000000e+00
5.7000000000000002e+00 0.0000000000000000e+00 0.0000000000000000e+00
5.8000000000000007e+00 0.0000000000000000e+00 0.0000000000000000e+00
5.9000000000000004e+00 0.0000000000000000e+00 0.0000000000000000e+00
6.0000000000000000e+00 0.0000000000000000e+00 0.0000000000000000e+00
6.1000000000000005e+00 0.0000000000000000e+00 0.0000000000000000e+00
6.2000000000000002e+00 0.0000000000000000e+00 0.0000000000000000e+00
6.3000000000000007e+00 0.0000000000000000e+00 0.0000000000000000e+00
6.4000000000000004e+00 0.0000000000000000e+00 0.0000000000000000e+00
6.5000000000000000e+00 0.0000000000000000e+00 0.0000000000000000e+00
6.6000000000000005e+00 0.0000000000000000e+00 0.0000000000000000e+00
6.7000000000000002e+00 0.0000000000000000e+00 0.0000000000000000e+00
6.8000000000000007e+00 0.0000000000000000e+00 0.0000000000000000e+00
6.9000000000000004e+00 0.0000000000000000e+00 0.0000000000000000e+00
7.0000000000000000e+00 0.0000000000000000e+00 0.0000000000000000e+00
7.1000000000000005e+00 0.0000000000000000e+00 0.0000000000000000e+00
7.2000000000000002e+00 0.0000000000000000e+00 0.0000000000000000e+00
7.3000000000000007e+00 0.0000000000000000e+00 0.0000000000000000e+00
7.4000000000000004e+00 0.0000000000000000e+00 0.0000000000000000e+00
7.5000000000000000e+00 0.0000000000000000e+00 0.0000000000000000e+00
7.6000000000000005e+00 0.0000000000000000e+00 0.0000000000000000e+00
7.7000000000000002e+00 0.0000000000000000e+00 0.0000000000000000e+00
7.8000000000000007e+00 0.0000000000000000e+00 0.0000000000000000e+00
7.9000000000000004e+00 0.0000000000000000e+00 0.0000000000000000e+00
8.0000000000000000e+00 0.0000000000000000e+00 0.0000000000000000e+00
8.0999999999999996e+00 0.0000000000000000e+00 0.0000000000000000e+00
8.2000000000000011e+00 0.0000000000000000e+00 0.0000000000000000e+00
8.3000000000000007e+00 0.0000000000000000e+00 0.0000000000000000e+00
8.4000000000000004e+00 0.0000000000000000e+00 0.0000000000000000e+00
8.5000000000000000e+00 0.0000000000000000e+00 0.0000000000000000e+00
8.5999999999999996e+00 0.0000000000000000e+00 0.0000000000000000e+00
8.7000000000000011e+00 0.0000000000000000e+00 0.0000000000000000e+00
8.8000000000000007e+00 0.0000000000000000e+00 0.0000000000000000e+00
8.9000000000000004e+00 0.0000000000000000e+00 0.0000000000000000e+00
9.0000000000000000e+00 0.0000000000000000e+00 0.0000000000000000e+00
9.0999999999999996e+00 0.0000000000000000e+00 0.0000000000000000e+00
9.2000000000000011e+00 0.0000000000000000e+00 0.0000000000000000e+00
9.3000000000000007e+00 0.0000000000000000e+00 0.0000000000000000e+00
9.4000000000000004e+00 0.0000000000000000e+00 0.0000000000000000e+00
9.5000000000000000e+00 0.0000000000000000e+00 0.0000000000000000e+00
9.6000000000000014e+00 0.0000000000000000e+00 0.0000000000000000e+00
9.7000000000000011e+00 0.0000000000000000e+00 0.0000000000000000e+00
9.8000000000000007e+00 0.0000000000000000e+00 0.0000000000000000e+00
9.9000000000000004e+00 0.0000000000000000e+00 0.0000000000000000e+00
1.0000000000000000e+01 0.0000000000000000e+00 0.0000000000000000e+00

POINT_DATA 101

VECTORS velocity float
3.0232826779144180e+00 0.0000000000000000e+00 0.0000000000000000e+00
3.0230444672131855e+00 0.0000000000000000e+00 0.0000000000000000e+00
3.0228304751269151e+00 0.0000000000000000e+00 0.0000000000000000e+00
3.0226265056270929e+00 0.0000000000000000e+00 0.0000000000000000e+00
3.0224268959846303e+00 0.0000000000000000e+00 0.0000000000000000e+00
3.0222303738573655e+00 0.0000000000000000e+00 0.0000000000000000e+00
3.0220381894403023e+00 0.0000000000000000e+00 0.0000000000000000e+00
3.0218500659295811e+00 0.0000000000000000e+00 0.0000000000000000e+00
3.0216632883943579e+00 0.0000000000000000e+00 0.0000000000000000e+00
3.0214753365839218e+00 0.0000000000000000e+00 0.0000000000000000e+00
3.0212871178603242e+00 0.0000000000000000e+00 0.0000000000000000e+00
3.0210998104652882e+00 0.0000000000000000e+00 0.0000000000000000e+00
3.0209140417376110e+00 0.0000000000000000e+00 0.0000000000000000e+00
3.0207311623833313e+00 0.0000000000000000e+00 0.0000000000000000e+00
3.0205517907575041e+00 0.0000000000000000e+00 0.0000000000000000e+00
3.0203752262188983e+00 0.0000000000000000e+00 0.0000000000000000e+00
3.0202000736777128e+00 0.0000000000000000e+00 0.0000000000000000e+00
3.0200259492845283e+00 0.0000000000000000e+00 0.0000000000000000e+00
3.0198533467859838e+00 0.0000000000000000e+00 0.0000000000000000e+00
3.0196822297824779e+00 0.0000000000000000e+00 0.0000000000000000e+00
3.0195125076376486e+00 0.0000000000000000e+00 0.0000000000000000e+00
3.0193443597171417e+00 0.0000000000000000e+00 0.0000000000000000e+00
3.0191779776519398e+00 0.0000000000000000e+00 0.0000000000000000e+00
3.0190138551254804e+00 0.0000000000000000e+00 0.0000000000000000e+00
3.0188531413404989e+00 0.0000000000000000e+00 0.0000000000000000e+00
3.0186948970193979e+00 0.0000000000000000e+00 0.0000000000000000e+00
3.0185377814476482e+00 0.0000000000000000e+00 0.0000000000000000e+00
3.0183821761810625e+00 0.0000000000000000e+00 0.0000000000000000e+00
3.0182283800390692e+00 0.0000000000000000e+00 0.0000000000000000e+00
3.0180760684901342e+00 0.0000000000000000e+00 0.0000000000000000e+00
3.0179249120683895e+00 0.0000000000000000e+00 0.0000000000000000e+00
3.0177751981351948e+00 0.0000000000000000e+00 0.0000000000000000e+00
3.0176272931612167e+00 0.0000000000000000e+00 0.0000000000000000e+00
3.0174817341048210e+00 0.0000000000000000e+00 0.0000000000000000e+00
3.0173384521706876e+00 0.0000000000000000e+00 0.0000000000000000e+00
3.0171972264901608e+00 0.0000000000000000e+00 0.0000000000000000e+00
3.0170579738304992e+00 0.0000000000000000e+00 0.0000000000000000e+00
3.0169206508384185e+00 0.0000000000000000e+00 0.0000000000000000e+00
3.0167852843885004e+00 0.0000000000000000e+00 0.0000000000000000e+00
3.0166517406908251e+00 0.0000000000000000e+00 0.0000000000000000e+00
3.0165197690073806e+00 0.0000000000000000e+00 0.0000000000000000e+00
3.0163894922413372e+00 0.0000000000000000e+00 0.0000000000000000e+00
3.0162609656319170e+00 0.0000000000000000e+00 0.0000000000000000e+00
3.0161342073857629e+00 0.0000000000000000e+00 0.0000000000000000e+00
3.0160092241241290e+00 0.0000000000000000e+00 0.0000000000000000e+00
3.0158860193407193e+00 0.0000000000000000e+00 0.0000000000000000e+00
3.0157645956358139e+00 0.0000000000000000e+00 0.0000000000000000e+00
3.0156449543069255e+00 0.0000000000000000e+00 0.0000000000000000e+00
3.0155270969107657e+00 0.0000000000000000e+00 0.0000000000000000e+00
3.0154110250877411e+00 0.0000000000000000e+00 0.0000000000000000e+00
3.0152967404166597e+00 0.0000000000000000e+00 0.0000000000000000e+00
3.0151842445346557e+00 0.0000000000000000e+00 0.0000000000000000e+00
3.0150735390412056e+00 0.0000000000000000e+00 0.0000000000000000e+00
3.0149646254111651e+00 0.0000000000000000e+00 0.0000000000000000e+00
3.0148575051729103e+00 0.0000000000000000e+00 0.0000000000000000e+00
3.0147521798428336e+00 0.0000000000000000e+00 0.0000000000000000e+00
3.0146486504020835e+00 0.0000000000000000e+00 0.0000000000000000e+00
3.0145469183394624e+00 0.0000000000000000e+00 0.0000000000000000e+00
3.0144469854468996e+00 0.0000000000000000e+00 0.0000000000000000e+00
3.0143488531091540e+00 0.0000000000000000e+00 0.0000000000000000e+00
3.0142525225843451e+00 0.0000000000000000e+00 0.0000000000000000e+00
3.0141579951431594e+00 0.0000000000000000e+00 0.0000000000000000e+00
3.0140652718999079e+00 0.0000000000000000e+00 0.0000000000000000e+00
3.0139743539187238e+00 0.0000000000000000e+00 0.0000000000000000e+00
3.0138852423678784e+00 0.0000000000000000e+00 0.0000000000000000e+00
3.0137979384440219e+00 0.0000000000000000e+00 0.0000000000000000e+00
3.0137124432414986e+00 0.0000000000000000e+00 0.0000000000000000e+00
3.0136287579424414e+00 0.0000000000000000e+00 0.0000000000000000e+00
3.0135468836890213e+00 0.0000000000000000e+00 0.0000000000000000e+00
3.0134668215189540e+00 0.0000000000000000e+00 0.0000000000000000e+00
3.0133885723949132e+00 0.0000000000000000e+00 0.0000000000000000e+00
3.0133121372286960e+00 0.0000000000000000e+00 0.0000000000000000e+00
3.0132375168227288e+00 0.0000000000000000e+00 0.0000000000000000e+00
3.0131647120564256e+00 0.0000000000000000e+00 0.0000000000000000e+00
3.0130937238180739e+00 0.0000000000000000e+00 0.0000000000000000e+00
3.0130245528183441e+00 0.0000000000000000e+00 0.0000000000000000e+00
3.0129572001833682e+00 0.0000000000000000e+00 0.0000000000000000e+00
3.0128916664341903e+00 0.0000000000000000e+00 0.0000000000000000e+00
3.0128279525202268e+00 0.0000000000000000e+00 0.0000000000000000e+00
3.0127660590786722e+00 0.0000000000000000e+00 0.0000000000000000e+00
3.0127059864790833e+00 0.0000000000000000e+00 0.0000000000000000e+00
3.0126477353938172e+00 0.0000000000000000e+00 0.0000000000000000e+00
3.0125913063077610e+00 0.0000000000000000e+00 0.0000000000000000e+00
3.0125367004832508e+00 0.0000000000000000e+00 0.0000000000000000e+00
3.0124839180399889e+00 0.0000000000000000e+00 0.0000000000000000e+00
3.0124329588099310e+00 0.0000000000000000e+00 0.0000000000000000e+00
3.0123838232856057e+00 0.0000000000000000e+00 0.0000000000000000e+00
3.0123365123779373e+00 0.0000000000000000e+00 0.0000000000000000e+00
3.0122910261395202e+00 0.0000000000000000e+00 0.0000000000000000e+00
3.0122473653726640e+00 0.0000000000000000e+00 0.0000000000000000e+00
3.0122055311937710e+00 0.0000000000000000e+00 0.0000000000000000e+00
3.0121655232709887e+00 0.0000000000000000e+00 0.0000000000000000e+00
3.0121273407298639e+00 0.0000000000000000e+00 0.0000000000000000e+00
3.0120909865936847e+00 0.0000000000000000e+00 0.0000000000000000e+00
3.0120564549907671e+00 0.0000000000000000e+00 0.0000000000000000e+00
3.0120237623408244e+00 0.0000000000000000e+00 0.0000000000000000e+00
3.0119928620294925e+00 0.0000000000000000e+00 0.0000000000000000e+00
3.0119638841263114e+00 0.0000000000000000e+00 0.0000000000000000e+00
3.0119364751153346e+00 0.0000000000000000e+00 0.0000000000000000e+00
3.0119115823224192e+00 0.0000000000000000e+00 0.0000000000000000e+00
3.0118866895295042e+00 0.0000000000000000e+00 0.0000000000000000e+00


SCALARS pressure float
LOOKUP_TABLE default
-7.5469851194904223e+00
-7.4765163420421263e+00
-7.4060475645938313e+00
-7.3354815793787003e+00
-7.2647806060642974e+00
-7.1939299275282647e+00
-7.1229274686466972e+00
-7.0517782787832513e+00
-6.9804827088068686e+00
-6.9090345584719826e+00
-6.8374279684678676e+00
-6.7656679358695619e+00
-6.6937596079191115e+00
-6.6217059906218534e+00
-6.5495124909878619e+00
-6.4771825349440464e+00
-6.4047152883826852e+00
-6.3321085961778758e+00
-6.2593646420138667e+00
-6.1864870572079846e+00
-6.1134766467028907e+00
-6.0403343666240614e+00
-5.9670620949289734e+00
-5.8936619423378955e+00
-5.8201376056398662e+00
-5.7464953064732853e+00
-5.6727337431675142e+00
-5.5988501671492781e+00
-5.5248477642629084e+00
-5.4507291265612681e+00
-5.3764948473098464e+00
-5.3021455607057426e+00
-5.2276839268516699e+00
-5.1531127398511547e+00
-5.0784356124820942e+00
-5.0036541703250021e+00
-4.9287696035476376e+00
-4.8537835539731127e+00
-4.7786977355203746e+00
-4.7035141219493717e+00
-4.6282340170686656e+00
-4.5528581610217413e+00
-4.4773886680317352e+00
-4.4018273857808046e+00
-4.3261760814299457e+00
-4.2504364980304361e+00
-4.1746103747386112e+00
-4.0986994510764196e+00
-4.0227054633316044e+00
-3.9466301499743199e+00
-3.8704752511454559e+00
-3.7942425084316898e+00
-3.7179336650181347e+00
-3.6415504652918878e+00
-3.5650946543890663e+00
-3.4885679787986303e+00
-3.4119721861271093e+00
-3.3353090234658413e+00
-3.2585802410023654e+00
-3.1817875907921325e+00
-3.1049328245893753e+00
-3.0280176949037649e+00
-2.9510439551125427e+00
-2.8740133588731656e+00
-2.7969276607936107e+00
-2.7197886168127270e+00
-2.6425979838417466e+00
-2.5653575193148290e+00
-2.4880689818290831e+00
-2.4107341306371048e+00
-2.3333547254194928e+00
-2.2559325263302155e+00
-2.1784692939740036e+00
-2.1009667891230821e+00
-2.0234267734397049e+00
-1.9458510091010928e+00
-1.8682412583562023e+00
-1.7905992854640813e+00
-1.7129268531326101e+00
-1.6352257259515350e+00
-1.5574976672188614e+00
-1.4797444401383588e+00
-1.4019678094337489e+00
-1.3241695394057904e+00
-1.2463513970958009e+00
-1.1685151459615284e+00
-1.0906625490234194e+00
-1.0127953722204934e+00
-9.3491538283706332e-01
-8.5702434388695403e-01
-7.7912402202697573e-01
-7.0121618457735824e-01
-6.2330259536629029e-01
-5.4538501402141371e-01
-4.6746521852750939e-01
-3.8954494342798257e-01
-3.1162603026467955e-01
-2.3371003086303319e-01
-1.5579927938629226e-01
-7.7894027274252237e-02
0.0000000000000000e+00


SCALARS diameter float
LOOKUP_TABLE default
9.9931805451750955e-01
9.9932582273235460e-01
9.9933266608422289e-01
9.9933952912708646e-01
9.9934633579276100e-01
9.9935315600235697e-01
9.9935873600662406e-01
9.9936329639979893e-01
9.9936812647664031e-01
9.9937478985142625e-01
9.9938210873792743e-01
9.9938945560753467e-01
9.9939684337647017e-01
9.9940373384778891e-01
9.9940964612876348e-01
9.9941540625941705e-01
9.9942130440144650e-01
9.9942781809656644e-01
9.9943450255545285e-01
9.9944139177357982e-01
9.9944837981170209e-01
9.9945545315211681e-01
9.9946235491188518e-01
9.9946909538502504e-01
9.9947514582247476e-01
9.9948097752620702e-01
9.9948759946050836e-01
9.9949419911620896e-01
9.9950080765860827e-01
9.9950746018008729e-01
9.9951452442877253e-01
9.9952159023853904e-01
9.9952866390837491e-01
9.9953540510898797e-01
9.9954201079882599e-01
9.9954862377266174e-01
9.9955524404459095e-01
9.9956187192107249e-01
9.9956850700948430e-01
9.9957516181011929e-01
9.9958200894184490e-01
9.9958885884823434e-01
9.9959571334482866e-01
9.9960257282380149e-01
9.9960943740696884e-01
9.9961630697752191e-01
9.9962318129360284e-01
9.9963006081076933e-01
9.9963694543756421e-01
9.9964383494389164e-01
9.9965072932528376e-01
9.9965762849570894e-01
9.9966453236414921e-01
9.9967144091549975e-01
9.9967835406102123e-01
9.9968527165171106e-01
9.9969219381935570e-01
9.9969912052472909e-01
9.9970605137830360e-01
9.9971298637458450e-01
9.9971992550177746e-01
9.9972686867668159e-01
9.9973381584806664e-01
9.9974076696399650e-01
9.9974772197182826e-01
9.9975468072583440e-01
9.9976164320695671e-01
9.9976860928801892e-01
9.9977557886195967e-01
9.9978255187085829e-01
9.9978952826438461e-01
9.9979650798119846e-01
9.9980349098692123e-01
9.9981047719035376e-01
9.9981746645782898e-01
9.9982445877133541e-01
9.9983145392680028e-01
9.9983845187399589e-01
9.9984545266003788e-01
9.9985245595764816e-01
9.9985946196193931e-01
9.9986647044295307e-01
9.9987348143110855e-01
9.9988049456400518e-01
9.9988750972232754e-01
9.9989452749838437e-01
9.9990154750516813e-01
9.9990856950881601e-01
9.9991559377930350e-01
9.9992261964012508e-01
9.9992964701632370e-01
9.9993667568788347e-01
9.9994370679763400e-01
9.9995073878020346e-01
9.9995777234146488e-01
9.9996480737261995e-01
9.9997184363879055e-01
9.9997888109933064e-01
9.9998591964220052e-01
9.9999295954953671e-01
1.0000000015473343e+00


SCALARS iters float
LOOKUP_TABLE default
3.0000000000000000e+00
3.0000000000000000e+00
3.0000000000000000e+00
3.0000000000000000e+00
3.0000000000000000e+00
3.0000000000000000e+00
3.0000000000000000e+00
3.0000000000000000e+00
3.0000000000000000e+00
3.0000000000000000e+00
3.0000000000000000e+00
3.0000000000000000e+00
3.0000000000000000e+00
3.0000000000000000e+00
3.0000000000000000e+00
3.0000000000000000e+00
3.0000000000000000e+00
3.0000000000000000e+00
3.0000000000000000e+00
3.0000000000000000e+00
3.0000000000000000e+00
3.0000000000000000e+00
3.0000000000000000e+00
3.0000000000000000e+00
3.0000000000000000e+00
3.0000000000000000e+00
3.0000000000000000e+00
3.0000000000000000e+00
3.0000000000000000e+00
3.0000000000000000e+00
3.0000000000000000e+00
3.0000000000000000e+00
3.0000000000000000e+00
3.0000000000000000e+00
3.0000000000000000e+00
3.0000000000000000e+00
3.0000000000000000e+00
3.0000000000000000e+00
3.0000000000000000e+00
3.0000000000000000e+00
3.0000000000000000e+00
3.0000000000000000e+00
3.0000000000000000e+00
3.0000000000000000e+00
3.0000000000000000e+00
3.0000000000000000e+00
3.0000000000000000e+00
3.0000000000000000e+00
3.0000000000000000e+00
3.0000000000000000e+00
3.0000000000000000e+00
3.0000000000000000e+00
3.0000000000000000e+00
3.0000000000000000e+00
3.0000000000000000e+00
3.0000000000000000e+00
3.0000000000000000e+00
3.0000000000000000e+00
3.0000000000000000e+00
3.0000000000000000e+00
3.0000000000000000e+00
3.0000000000000000e+00
3.0000000000000000e+00
3.0000000000000000e+00
3.0000000000000000e+00
3.0000000000000000e+00
3.0000000000000000e+00
3.0000000000000000e+00
3.0000000000000000e+00
3.0000000000000000e+00
3.0000000000000000e+00
3.0000000000000000e+00
3.0000000000000000e+00
3.0000000000000000e+00
3.0000000000000000e+00
3.0000000000000000e+00
3.0000000000000000e+00
3.0000000000000000e+00
3.0000000000000000e+00
3.0000000000000000e+00
3.0000000000000000e+00
3.0000000000000000e+00
3.0000000000000000e+00
3.0000000000000000e+00
3.0000000000000000e+00
3.0000000000000000e+00
3.0000000000000000e+00
3.0000000000000000e+00
3.0000000000000000e+00
3.0000000000000000e+00
3.0000000000000000e+00
3.0000000000000000e+00
3.0000000000000000e+00
3.0000000000000000e+00
3.0000000000000000e+00
3.0000000000000000e+00
3.0000000000000000e+00
3.0000000000000000e+00
3.0000000000000000e+00
3.0000000000000000e+00
3.0000000000000000e+00


