# vtk DataFile Version 2.0

ASCII

DATASET UNSTRUCTURED_GRID

POINTS 101 float

0.0000000000000000e+00 0.0000000000000000e+00 0.0000000000000000e+00
1.0000000000000001e-01 0.0000000000000000e+00 0.0000000000000000e+00
2.0000000000000001e-01 0.0000000000000000e+00 0.0000000000000000e+00
3.0000000000000004e-01 0.0000000000000000e+00 0.0000000000000000e+00
4.0000000000000002e-01 0.0000000000000000e+00 0.0000000000000000e+00
5.0000000000000000e-01 0.0000000000000000e+00 0.0000000000000000e+00
6.0000000000000009e-01 0.0000000000000000e+00 0.0000000000000000e+00
7.0000000000000007e-01 0.0000000000000000e+00 0.0000000000000000e+00
8.0000000000000004e-01 0.0000000000000000e+00 0.0000000000000000e+00
9.0000000000000002e-01 0.0000000000000000e+00 0.0000000000000000e+00
1.0000000000000000e+00 0.0000000000000000e+00 0.0000000000000000e+00
1.1000000000000001e+00 0.0000000000000000e+00 0.0000000000000000e+00
1.2000000000000002e+00 0.0000000000000000e+00 0.0000000000000000e+00
1.3000000000000000e+00 0.0000000000000000e+00 0.0000000000000000e+00
1.4000000000000001e+00 0.0000000000000000e+00 0.0000000000000000e+00
1.5000000000000000e+00 0.0000000000000000e+00 0.0000000000000000e+00
1.6000000000000001e+00 0.0000000000000000e+00 0.0000000000000000e+00
1.7000000000000002e+00 0.0000000000000000e+00 0.0000000000000000e+00
1.8000000000000000e+00 0.0000000000000000e+00 0.0000000000000000e+00
1.9000000000000001e+00 0.0000000000000000e+00 0.0000000000000000e+00
2.0000000000000000e+00 0.0000000000000000e+00 0.0000000000000000e+00
2.1000000000000001e+00 0.0000000000000000e+00 0.0000000000000000e+00
2.2000000000000002e+00 0.0000000000000000e+00 0.0000000000000000e+00
2.3000000000000003e+00 0.0000000000000000e+00 0.0000000000000000e+00
2.4000000000000004e+00 0.0000000000000000e+00 0.0000000000000000e+00
2.5000000000000000e+00 0.0000000000000000e+00 0.0000000000000000e+00
2.6000000000000001e+00 0.0000000000000000e+00 0.0000000000000000e+00
2.7000000000000002e+00 0.0000000000000000e+00 0.0000000000000000e+00
2.8000000000000003e+00 0.0000000000000000e+00 0.0000000000000000e+00
2.9000000000000004e+00 0.0000000000000000e+00 0.0000000000000000e+00
3.0000000000000000e+00 0.0000000000000000e+00 0.0000000000000000e+00
3.1000000000000001e+00 0.0000000000000000e+00 0.0000000000000000e+00
3.2000000000000002e+00 0.0000000000000000e+00 0.0000000000000000e+00
3.3000000000000003e+00 0.0000000000000000e+00 0.0000000000000000e+00
3.4000000000000004e+00 0.0000000000000000e+00 0.0000000000000000e+00
3.5000000000000000e+00 0.0000000000000000e+00 0.0000000000000000e+00
3.6000000000000001e+00 0.0000000000000000e+00 0.0000000000000000e+00
3.7000000000000002e+00 0.0000000000000000e+00 0.0000000000000000e+00
3.8000000000000003e+00 0.0000000000000000e+00 0.0000000000000000e+00
3.9000000000000004e+00 0.0000000000000000e+00 0.0000000000000000e+00
4.0000000000000000e+00 0.0000000000000000e+00 0.0000000000000000e+00
4.1000000000000005e+00 0.0000000000000000e+00 0.0000000000000000e+00
4.2000000000000002e+00 0.0000000000000000e+00 0.0000000000000000e+00
4.2999999999999998e+00 0.0000000000000000e+00 0.0000000000000000e+00
4.4000000000000004e+00 0.0000000000000000e+00 0.0000000000000000e+00
4.5000000000000000e+00 0.0000000000000000e+00 0.0000000000000000e+00
4.6000000000000005e+00 0.0000000000000000e+00 0.0000000000000000e+00
4.7000000000000002e+00 0.0000000000000000e+00 0.0000000000000000e+00
4.8000000000000007e+00 0.0000000000000000e+00 0.0000000000000000e+00
4.9000000000000004e+00 0.0000000000000000e+00 0.0000000000000000e+00
5.0000000000000000e+00 0.0000000000000000e+00 0.0000000000000000e+00
5.1000000000000005e+00 0.0000000000000000e+00 0.0000000000000000e+00
5.2000000000000002e+00 0.0000000000000000e+00 0.0000000000000000e+00
5.3000000000000007e+00 0.0000000000000000e+00 0.0000000000000000e+00
5.4000000000000004e+00 0.0000000000000000e+00 0.0000000000000000e+00
5.5000000000000000e+00 0.0000000000000000e+00 0.0000000000000000e+00
5.6000000000000005e+00 0.0000000000000000e+00 0.0000000000000000e+00
5.7000000000000002e+00 0.0000000000000000e+00 0.0000000000000000e+00
5.8000000000000007e+00 0.0000000000000000e+00 0.0000000000000000e+00
5.9000000000000004e+00 0.0000000000000000e+00 0.0000000000000000e+00
6.0000000000000000e+00 0.0000000000000000e+00 0.0000000000000000e+00
6.1000000000000005e+00 0.0000000000000000e+00 0.0000000000000000e+00
6.2000000000000002e+00 0.0000000000000000e+00 0.0000000000000000e+00
6.3000000000000007e+00 0.0000000000000000e+00 0.0000000000000000e+00
6.4000000000000004e+00 0.0000000000000000e+00 0.0000000000000000e+00
6.5000000000000000e+00 0.0000000000000000e+00 0.0000000000000000e+00
6.6000000000000005e+00 0.0000000000000000e+00 0.0000000000000000e+00
6.7000000000000002e+00 0.0000000000000000e+00 0.0000000000000000e+00
6.8000000000000007e+00 0.0000000000000000e+00 0.0000000000000000e+00
6.9000000000000004e+00 0.0000000000000000e+00 0.0000000000000000e+00
7.0000000000000000e+00 0.0000000000000000e+00 0.0000000000000000e+00
7.1000000000000005e+00 0.0000000000000000e+00 0.0000000000000000e+00
7.2000000000000002e+00 0.0000000000000000e+00 0.0000000000000000e+00
7.3000000000000007e+00 0.0000000000000000e+00 0.0000000000000000e+00
7.4000000000000004e+00 0.0000000000000000e+00 0.0000000000000000e+00
7.5000000000000000e+00 0.0000000000000000e+00 0.0000000000000000e+00
7.6000000000000005e+00 0.0000000000000000e+00 0.0000000000000000e+00
7.7000000000000002e+00 0.0000000000000000e+00 0.0000000000000000e+00
7.8000000000000007e+00 0.0000000000000000e+00 0.0000000000000000e+00
7.9000000000000004e+00 0.0000000000000000e+00 0.0000000000000000e+00
8.0000000000000000e+00 0.0000000000000000e+00 0.0000000000000000e+00
8.0999999999999996e+00 0.0000000000000000e+00 0.0000000000000000e+00
8.2000000000000011e+00 0.0000000000000000e+00 0.0000000000000000e+00
8.3000000000000007e+00 0.0000000000000000e+00 0.0000000000000000e+00
8.4000000000000004e+00 0.0000000000000000e+00 0.0000000000000000e+00
8.5000000000000000e+00 0.0000000000000000e+00 0.0000000000000000e+00
8.5999999999999996e+00 0.0000000000000000e+00 0.0000000000000000e+00
8.7000000000000011e+00 0.0000000000000000e+00 0.0000000000000000e+00
8.8000000000000007e+00 0.0000000000000000e+00 0.0000000000000000e+00
8.9000000000000004e+00 0.0000000000000000e+00 0.0000000000000000e+00
9.0000000000000000e+00 0.0000000000000000e+00 0.0000000000000000e+00
9.0999999999999996e+00 0.0000000000000000e+00 0.0000000000000000e+00
9.2000000000000011e+00 0.0000000000000000e+00 0.0000000000000000e+00
9.3000000000000007e+00 0.0000000000000000e+00 0.0000000000000000e+00
9.4000000000000004e+00 0.0000000000000000e+00 0.0000000000000000e+00
9.5000000000000000e+00 0.0000000000000000e+00 0.0000000000000000e+00
9.6000000000000014e+00 0.0000000000000000e+00 0.0000000000000000e+00
9.7000000000000011e+00 0.0000000000000000e+00 0.0000000000000000e+00
9.8000000000000007e+00 0.0000000000000000e+00 0.0000000000000000e+00
9.9000000000000004e+00 0.0000000000000000e+00 0.0000000000000000e+00
1.0000000000000000e+01 0.0000000000000000e+00 0.0000000000000000e+00

POINT_DATA 101

VECTORS velocity float
3.9492442218481467e+00 0.0000000000000000e+00 0.0000000000000000e+00
3.9488745102195111e+00 0.0000000000000000e+00 0.0000000000000000e+00
3.9485187640320043e+00 0.0000000000000000e+00 0.0000000000000000e+00
3.9481734870581109e+00 0.0000000000000000e+00 0.0000000000000000e+00
3.9478352707979489e+00 0.0000000000000000e+00 0.0000000000000000e+00
3.9475019239570370e+00 0.0000000000000000e+00 0.0000000000000000e+00
3.9471729195472620e+00 0.0000000000000000e+00 0.0000000000000000e+00
3.9468501919507428e+00 0.0000000000000000e+00 0.0000000000000000e+00
3.9465302765440504e+00 0.0000000000000000e+00 0.0000000000000000e+00
3.9462061188974524e+00 0.0000000000000000e+00 0.0000000000000000e+00
3.9458793373917196e+00 0.0000000000000000e+00 0.0000000000000000e+00
3.9455522665022045e+00 0.0000000000000000e+00 0.0000000000000000e+00
3.9452247973169587e+00 0.0000000000000000e+00 0.0000000000000000e+00
3.9448986270721353e+00 0.0000000000000000e+00 0.0000000000000000e+00
3.9445762138212204e+00 0.0000000000000000e+00 0.0000000000000000e+00
3.9442566164313577e+00 0.0000000000000000e+00 0.0000000000000000e+00
3.9439420656696522e+00 0.0000000000000000e+00 0.0000000000000000e+00
3.9436336564361327e+00 0.0000000000000000e+00 0.0000000000000000e+00
3.9433258433728180e+00 0.0000000000000000e+00 0.0000000000000000e+00
3.9430157267301227e+00 0.0000000000000000e+00 0.0000000000000000e+00
3.9427047124191543e+00 0.0000000000000000e+00 0.0000000000000000e+00
3.9423951035859321e+00 0.0000000000000000e+00 0.0000000000000000e+00
3.9420886287999704e+00 0.0000000000000000e+00 0.0000000000000000e+00
3.9417871811125162e+00 0.0000000000000000e+00 0.0000000000000000e+00
3.9414894733117940e+00 0.0000000000000000e+00 0.0000000000000000e+00
3.9411910835411978e+00 0.0000000000000000e+00 0.0000000000000000e+00
3.9408944291940653e+00 0.0000000000000000e+00 0.0000000000000000e+00
3.9405997410070648e+00 0.0000000000000000e+00 0.0000000000000000e+00
3.9403072430466746e+00 0.0000000000000000e+00 0.0000000000000000e+00
3.9400164170584744e+00 0.0000000000000000e+00 0.0000000000000000e+00
3.9397271056941050e+00 0.0000000000000000e+00 0.0000000000000000e+00
3.9394396468131725e+00 0.0000000000000000e+00 0.0000000000000000e+00
3.9391545202947871e+00 0.0000000000000000e+00 0.0000000000000000e+00
3.9388723475751166e+00 0.0000000000000000e+00 0.0000000000000000e+00
3.9385929703973459e+00 0.0000000000000000e+00 0.0000000000000000e+00
3.9383160767435519e+00 0.0000000000000000e+00 0.0000000000000000e+00
3.9380415610115196e+00 0.0000000000000000e+00 0.0000000000000000e+00
3.9377693465644725e+00 0.0000000000000000e+00 0.0000000000000000e+00
3.9374995114777227e+00 0.0000000000000000e+00 0.0000000000000000e+00
3.9372317611693499e+00 0.0000000000000000e+00 0.0000000000000000e+00
3.9369657648655547e+00 0.0000000000000000e+00 0.0000000000000000e+00
3.9367018230421102e+00 0.0000000000000000e+00 0.0000000000000000e+00
3.9364400468041887e+00 0.0000000000000000e+00 0.0000000000000000e+00
3.9361804926567427e+00 0.0000000000000000e+00 0.0000000000000000e+00
3.9359231943272950e+00 0.0000000000000000e+00 0.0000000000000000e+00
3.9356681784544234e+00 0.0000000000000000e+00 0.0000000000000000e+00
3.9354154657217579e+00 0.0000000000000000e+00 0.0000000000000000e+00
3.9351650727269494e+00 0.0000000000000000e+00 0.0000000000000000e+00
3.9349170165646998e+00 0.0000000000000000e+00 0.0000000000000000e+00
3.9346713148155197e+00 0.0000000000000000e+00 0.0000000000000000e+00
3.9344279847943335e+00 0.0000000000000000e+00 0.0000000000000000e+00
3.9341870427067143e+00 0.0000000000000000e+00 0.0000000000000000e+00
3.9339485052435830e+00 0.0000000000000000e+00 0.0000000000000000e+00
3.9337123883231371e+00 0.0000000000000000e+00 0.0000000000000000e+00
3.9334787076599218e+00 0.0000000000000000e+00 0.0000000000000000e+00
3.9332474787433078e+00 0.0000000000000000e+00 0.0000000000000000e+00
3.9330187163653654e+00 0.0000000000000000e+00 0.0000000000000000e+00
3.9327924356033455e+00 0.0000000000000000e+00 0.0000000000000000e+00
3.9325686517386429e+00 0.0000000000000000e+00 0.0000000000000000e+00
3.9323473794655786e+00 0.0000000000000000e+00 0.0000000000000000e+00
3.9321286331383973e+00 0.0000000000000000e+00 0.0000000000000000e+00
3.9319124259400531e+00 0.0000000000000000e+00 0.0000000000000000e+00
3.9316987710589393e+00 0.0000000000000000e+00 0.0000000000000000e+00
3.9314876820577984e+00 0.0000000000000000e+00 0.0000000000000000e+00
3.9312791721327560e+00 0.0000000000000000e+00 0.0000000000000000e+00
3.9310732541889619e+00 0.0000000000000000e+00 0.0000000000000000e+00
3.9308699407200409e+00 0.0000000000000000e+00 0.0000000000000000e+00
3.9306692441229365e+00 0.0000000000000000e+00 0.0000000000000000e+00
3.9304711765142275e+00 0.0000000000000000e+00 0.0000000000000000e+00
3.9302757495631240e+00 0.0000000000000000e+00 0.0000000000000000e+00
3.9300829745563131e+00 0.0000000000000000e+00 0.0000000000000000e+00
3.9298928623284146e+00 0.0000000000000000e+00 0.0000000000000000e+00
3.9297054233585067e+00 0.0000000000000000e+00 0.0000000000000000e+00
3.9295206685206945e+00 0.0000000000000000e+00 0.0000000000000000e+00
3.9293386080497492e+00 0.0000000000000000e+00 0.0000000000000000e+00
3.9291592523512211e+00 0.0000000000000000e+00 0.0000000000000000e+00
3.9289826117742641e+00 0.0000000000000000e+00 0.0000000000000000e+00
3.9288086955712629e+00 0.0000000000000000e+00 0.0000000000000000e+00
3.9286375128590985e+00 0.0000000000000000e+00 0.0000000000000000e+00
3.9284690721888977e+00 0.0000000000000000e+00 0.0000000000000000e+00
3.9283033824168090e+00 0.0000000000000000e+00 0.0000000000000000e+00
3.9281404517547562e+00 0.0000000000000000e+00 0.0000000000000000e+00
3.9279802884833703e+00 0.0000000000000000e+00 0.0000000000000000e+00
3.9278229021260027e+00 0.0000000000000000e+00 0.0000000000000000e+00
3.9276683000501769e+00 0.0000000000000000e+00 0.0000000000000000e+00
3.9275164861972320e+00 0.0000000000000000e+00 0.0000000000000000e+00
3.9273674686601643e+00 0.0000000000000000e+00 0.0000000000000000e+00
3.9272212547839556e+00 0.0000000000000000e+00 0.0000000000000000e+00
3.9270778514167879e+00 0.0000000000000000e+00 0.0000000000000000e+00
3.9269372665434989e+00 0.0000000000000000e+00 0.0000000000000000e+00
3.9267995067125612e+00 0.0000000000000000e+00 0.0000000000000000e+00
3.9266645742996169e+00 0.0000000000000000e+00 0.0000000000000000e+00
3.9265324739673941e+00 0.0000000000000000e+00 0.0000000000000000e+00
3.9264032167175880e+00 0.0000000000000000e+00 0.0000000000000000e+00
3.9262767966177528e+00 0.0000000000000000e+00 0.0000000000000000e+00
3.9261532450584165e+00 0.0000000000000000e+00 0.0000000000000000e+00
3.9260324903946699e+00 0.0000000000000000e+00 0.0000000000000000e+00
3.9259147470303382e+00 0.0000000000000000e+00 0.0000000000000000e+00
3.9257994512562453e+00 0.0000000000000000e+00 0.0000000000000000e+00
3.9256881103715227e+00 0.0000000000000000e+00 0.0000000000000000e+00
3.9255767694868000e+00 0.0000000000000000e+00 0.0000000000000000e+00


SCALARS pressure float
LOOKUP_TABLE default
-2.9152717310307718e+01
-2.8864969054675615e+01
-2.8577220799043516e+01
-2.8289427637080834e+01
-2.8001559146224970e+01
-2.7713594634642060e+01
-2.7425521105390963e+01
-2.7137332744763253e+01
-2.6849037172287769e+01
-2.6560623022866636e+01
-2.6272063403838715e+01
-2.5983363335817472e+01
-2.5694532773217059e+01
-2.5405572532198413e+01
-2.5116489989532813e+01
-2.4827296439222334e+01
-2.4537991322917975e+01
-2.4248586417737691e+01
-2.3959088084367131e+01
-2.3669475552341797e+01
-2.3379736757714074e+01
-2.3089877617082916e+01
-2.2799910222875432e+01
-2.2509846079694956e+01
-2.2219696822298499e+01
-2.1929455843066854e+01
-2.1639103835108642e+01
-2.1348651648117997e+01
-2.1058103028833596e+01
-2.0767460893351554e+01
-2.0476725376330414e+01
-2.0185897998974774e+01
-1.9894982198726744e+01
-1.9603981939460393e+01
-1.9312901346989861e+01
-1.9021741497466156e+01
-1.8730502748220907e+01
-1.8439186212139042e+01
-1.8147793134506234e+01
-1.7856325403340442e+01
-1.7564783421745165e+01
-1.7273167252895696e+01
-1.6981479446140433e+01
-1.6689722045344425e+01
-1.6397896893676712e+01
-1.6106005753232441e+01
-1.5814050361970359e+01
-1.5522032436300762e+01
-1.5229953677940571e+01
-1.4937815790995751e+01
-1.4645620482223206e+01
-1.4353369457277880e+01
-1.4061064417439717e+01
-1.3768707065427970e+01
-1.3476299100867148e+01
-1.3183842222387955e+01
-1.2891338127967840e+01
-1.2598788513040834e+01
-1.2306195073341206e+01
-1.2013559505389345e+01
-1.1720883503534182e+01
-1.1428168760620897e+01
-1.1135416964889117e+01
-1.0842629804629748e+01
-1.0549808969629312e+01
-1.0256956148360214e+01
-9.9640730281374399e+00
-9.6711612946305916e+00
-9.3782226329746798e+00
-9.0852587271648417e+00
-8.7922712593530736e+00
-8.4992619101710556e+00
-8.2062323585357060e+00
-7.9131842822125149e+00
-7.6201193606401887e+00
-7.3270392710844359e+00
-7.0339456916835488e+00
-6.7408403001178447e+00
-6.4477247703721634e+00
-6.1546007752656564e+00
-5.8614699866209152e+00
-5.5683340776306265e+00
-5.2751947191035180e+00
-4.9820535823053822e+00
-4.6889123434248470e+00
-4.3957726719332646e+00
-4.1026362229327260e+00
-3.8095046666681576e+00
-3.5163796715746303e+00
-3.2232629066668150e+00
-2.9301560449180859e+00
-2.6370607529133321e+00
-2.3439786824059241e+00
-2.0509114913174478e+00
-1.7578608693055091e+00
-1.4648284277246000e+00
-1.1718159528154142e+00
-8.7882476587042146e-01
-5.8585743590128503e-01
-2.9291323947985498e-01
0.0000000000000000e+00


SCALARS diameter float
LOOKUP_TABLE default
9.9736972115713896e-01
9.9739918317811249e-01
9.9742735399785587e-01
9.9745465648337672e-01
9.9748091132129901e-01
9.9750710810272047e-01
9.9753244331607305e-01
9.9755638839355576e-01
9.9757906820290210e-01
9.9760498197194358e-01
9.9763205270720023e-01
9.9765910572661343e-01
9.9768645424109004e-01
9.9771407558365222e-01
9.9774039324625274e-01
9.9776631115862491e-01
9.9779160901946495e-01
9.9781508931668339e-01
9.9783957204894858e-01
9.9786611986829266e-01
9.9789321624521621e-01
9.9792011695790905e-01
9.9794639166907551e-01
9.9797200557198995e-01
9.9799707129393833e-01
9.9802358084943721e-01
9.9804964784135486e-01
9.9807561365331732e-01
9.9810158850975550e-01
9.9812760456245453e-01
9.9815402022808497e-01
9.9818043055571581e-01
9.9820690508803933e-01
9.9823308456600668e-01
9.9825910233956427e-01
9.9828512559960514e-01
9.9831115459375419e-01
9.9833719016472178e-01
9.9836323122203585e-01
9.9838929690397504e-01
9.9841563961303115e-01
9.9844198106590976e-01
9.9846832439261346e-01
9.9849467042317341e-01
9.9852101949486716e-01
9.9854737114403969e-01
9.9857372458882199e-01
9.9860008141634693e-01
9.9862644136353063e-01
9.9865280444594351e-01
9.9867917015707686e-01
9.9870553886340374e-01
9.9873191030312336e-01
9.9875828441331505e-01
9.9878466132413468e-01
9.9881104080236294e-01
9.9883742308496437e-01
9.9886380811773745e-01
9.9889019546539015e-01
9.9891658510784154e-01
9.9894297693118017e-01
9.9896937111845008e-01
9.9899576791175748e-01
9.9902216694505985e-01
9.9904856820098931e-01
9.9907497152710800e-01
9.9910137694931966e-01
9.9912778433647509e-01
9.9915419358503610e-01
9.9918060465673553e-01
9.9920701756695307e-01
9.9923343233080375e-01
9.9925984906329957e-01
9.9928626759827510e-01
9.9931268778718696e-01
9.9933910968379547e-01
9.9936553278184725e-01
9.9939195732333186e-01
9.9941838325806387e-01
9.9944481065179502e-01
9.9947123945661942e-01
9.9949766954509056e-01
9.9952410093730204e-01
9.9955053301233054e-01
9.9957696544957741e-01
9.9960339999700831e-01
9.9962983619791479e-01
9.9965627265659407e-01
9.9968271044036916e-01
9.9970914836243496e-01
9.9973558642970506e-01
9.9976202555880245e-01
9.9978846637236607e-01
9.9981490662336203e-01
9.9984134738318353e-01
9.9986778900990625e-01
9.9989423079110618e-01
9.9992067285998876e-01
9.9994711505410494e-01
9.9997355855612569e-01
1.0000000053072495e+00


SCALARS iters float
LOOKUP_TABLE default
3.0000000000000000e+00
3.0000000000000000e+00
3.0000000000000000e+00
3.0000000000000000e+00
3.0000000000000000e+00
3.0000000000000000e+00
3.0000000000000000e+00
3.0000000000000000e+00
3.0000000000000000e+00
3.0000000000000000e+00
3.0000000000000000e+00
3.0000000000000000e+00
3.0000000000000000e+00
3.0000000000000000e+00
3.0000000000000000e+00
3.0000000000000000e+00
3.0000000000000000e+00
3.0000000000000000e+00
3.0000000000000000e+00
3.0000000000000000e+00
3.0000000000000000e+00
3.0000000000000000e+00
3.0000000000000000e+00
3.0000000000000000e+00
3.0000000000000000e+00
3.0000000000000000e+00
3.0000000000000000e+00
3.0000000000000000e+00
3.0000000000000000e+00
3.0000000000000000e+00
3.0000000000000000e+00
3.0000000000000000e+00
3.0000000000000000e+00
3.0000000000000000e+00
3.0000000000000000e+00
3.0000000000000000e+00
3.0000000000000000e+00
3.0000000000000000e+00
3.0000000000000000e+00
3.0000000000000000e+00
3.0000000000000000e+00
3.0000000000000000e+00
3.0000000000000000e+00
3.0000000000000000e+00
3.0000000000000000e+00
3.0000000000000000e+00
3.0000000000000000e+00
3.0000000000000000e+00
3.0000000000000000e+00
3.0000000000000000e+00
3.0000000000000000e+00
3.0000000000000000e+00
3.0000000000000000e+00
3.0000000000000000e+00
3.0000000000000000e+00
3.0000000000000000e+00
3.0000000000000000e+00
3.0000000000000000e+00
3.0000000000000000e+00
3.0000000000000000e+00
3.0000000000000000e+00
3.0000000000000000e+00
3.0000000000000000e+00
3.0000000000000000e+00
3.0000000000000000e+00
3.0000000000000000e+00
3.0000000000000000e+00
3.0000000000000000e+00
3.0000000000000000e+00
3.0000000000000000e+00
3.0000000000000000e+00
3.0000000000000000e+00
3.0000000000000000e+00
3.0000000000000000e+00
3.0000000000000000e+00
3.0000000000000000e+00
3.0000000000000000e+00
3.0000000000000000e+00
3.0000000000000000e+00
3.0000000000000000e+00
3.0000000000000000e+00
3.0000000000000000e+00
3.0000000000000000e+00
3.0000000000000000e+00
3.0000000000000000e+00
3.0000000000000000e+00
3.0000000000000000e+00
3.0000000000000000e+00
3.0000000000000000e+00
3.0000000000000000e+00
3.0000000000000000e+00
3.0000000000000000e+00
3.0000000000000000e+00
3.0000000000000000e+00
3.0000000000000000e+00
3.0000000000000000e+00
3.0000000000000000e+00
3.0000000000000000e+00
3.0000000000000000e+00
3.0000000000000000e+00
3.0000000000000000e+00


