# vtk DataFile Version 2.0

ASCII

DATASET UNSTRUCTURED_GRID

POINTS 101 float

0.0000000000000000e+00 0.0000000000000000e+00 0.0000000000000000e+00
1.0000000000000001e-01 0.0000000000000000e+00 0.0000000000000000e+00
2.0000000000000001e-01 0.0000000000000000e+00 0.0000000000000000e+00
3.0000000000000004e-01 0.0000000000000000e+00 0.0000000000000000e+00
4.0000000000000002e-01 0.0000000000000000e+00 0.0000000000000000e+00
5.0000000000000000e-01 0.0000000000000000e+00 0.0000000000000000e+00
6.0000000000000009e-01 0.0000000000000000e+00 0.0000000000000000e+00
7.0000000000000007e-01 0.0000000000000000e+00 0.0000000000000000e+00
8.0000000000000004e-01 0.0000000000000000e+00 0.0000000000000000e+00
9.0000000000000002e-01 0.0000000000000000e+00 0.0000000000000000e+00
1.0000000000000000e+00 0.0000000000000000e+00 0.0000000000000000e+00
1.1000000000000001e+00 0.0000000000000000e+00 0.0000000000000000e+00
1.2000000000000002e+00 0.0000000000000000e+00 0.0000000000000000e+00
1.3000000000000000e+00 0.0000000000000000e+00 0.0000000000000000e+00
1.4000000000000001e+00 0.0000000000000000e+00 0.0000000000000000e+00
1.5000000000000000e+00 0.0000000000000000e+00 0.0000000000000000e+00
1.6000000000000001e+00 0.0000000000000000e+00 0.0000000000000000e+00
1.7000000000000002e+00 0.0000000000000000e+00 0.0000000000000000e+00
1.8000000000000000e+00 0.0000000000000000e+00 0.0000000000000000e+00
1.9000000000000001e+00 0.0000000000000000e+00 0.0000000000000000e+00
2.0000000000000000e+00 0.0000000000000000e+00 0.0000000000000000e+00
2.1000000000000001e+00 0.0000000000000000e+00 0.0000000000000000e+00
2.2000000000000002e+00 0.0000000000000000e+00 0.0000000000000000e+00
2.3000000000000003e+00 0.0000000000000000e+00 0.0000000000000000e+00
2.4000000000000004e+00 0.0000000000000000e+00 0.0000000000000000e+00
2.5000000000000000e+00 0.0000000000000000e+00 0.0000000000000000e+00
2.6000000000000001e+00 0.0000000000000000e+00 0.0000000000000000e+00
2.7000000000000002e+00 0.0000000000000000e+00 0.0000000000000000e+00
2.8000000000000003e+00 0.0000000000000000e+00 0.0000000000000000e+00
2.9000000000000004e+00 0.0000000000000000e+00 0.0000000000000000e+00
3.0000000000000000e+00 0.0000000000000000e+00 0.0000000000000000e+00
3.1000000000000001e+00 0.0000000000000000e+00 0.0000000000000000e+00
3.2000000000000002e+00 0.0000000000000000e+00 0.0000000000000000e+00
3.3000000000000003e+00 0.0000000000000000e+00 0.0000000000000000e+00
3.4000000000000004e+00 0.0000000000000000e+00 0.0000000000000000e+00
3.5000000000000000e+00 0.0000000000000000e+00 0.0000000000000000e+00
3.6000000000000001e+00 0.0000000000000000e+00 0.0000000000000000e+00
3.7000000000000002e+00 0.0000000000000000e+00 0.0000000000000000e+00
3.8000000000000003e+00 0.0000000000000000e+00 0.0000000000000000e+00
3.9000000000000004e+00 0.0000000000000000e+00 0.0000000000000000e+00
4.0000000000000000e+00 0.0000000000000000e+00 0.0000000000000000e+00
4.1000000000000005e+00 0.0000000000000000e+00 0.0000000000000000e+00
4.2000000000000002e+00 0.0000000000000000e+00 0.0000000000000000e+00
4.2999999999999998e+00 0.0000000000000000e+00 0.0000000000000000e+00
4.4000000000000004e+00 0.0000000000000000e+00 0.0000000000000000e+00
4.5000000000000000e+00 0.0000000000000000e+00 0.0000000000000000e+00
4.6000000000000005e+00 0.0000000000000000e+00 0.0000000000000000e+00
4.7000000000000002e+00 0.0000000000000000e+00 0.0000000000000000e+00
4.8000000000000007e+00 0.0000000000000000e+00 0.0000000000000000e+00
4.9000000000000004e+00 0.0000000000000000e+00 0.0000000000000000e+00
5.0000000000000000e+00 0.0000000000000000e+00 0.0000000000000000e+00
5.1000000000000005e+00 0.0000000000000000e+00 0.0000000000000000e+00
5.2000000000000002e+00 0.0000000000000000e+00 0.0000000000000000e+00
5.3000000000000007e+00 0.0000000000000000e+00 0.0000000000000000e+00
5.4000000000000004e+00 0.0000000000000000e+00 0.0000000000000000e+00
5.5000000000000000e+00 0.0000000000000000e+00 0.0000000000000000e+00
5.6000000000000005e+00 0.0000000000000000e+00 0.0000000000000000e+00
5.7000000000000002e+00 0.0000000000000000e+00 0.0000000000000000e+00
5.8000000000000007e+00 0.0000000000000000e+00 0.0000000000000000e+00
5.9000000000000004e+00 0.0000000000000000e+00 0.0000000000000000e+00
6.0000000000000000e+00 0.0000000000000000e+00 0.0000000000000000e+00
6.1000000000000005e+00 0.0000000000000000e+00 0.0000000000000000e+00
6.2000000000000002e+00 0.0000000000000000e+00 0.0000000000000000e+00
6.3000000000000007e+00 0.0000000000000000e+00 0.0000000000000000e+00
6.4000000000000004e+00 0.0000000000000000e+00 0.0000000000000000e+00
6.5000000000000000e+00 0.0000000000000000e+00 0.0000000000000000e+00
6.6000000000000005e+00 0.0000000000000000e+00 0.0000000000000000e+00
6.7000000000000002e+00 0.0000000000000000e+00 0.0000000000000000e+00
6.8000000000000007e+00 0.0000000000000000e+00 0.0000000000000000e+00
6.9000000000000004e+00 0.0000000000000000e+00 0.0000000000000000e+00
7.0000000000000000e+00 0.0000000000000000e+00 0.0000000000000000e+00
7.1000000000000005e+00 0.0000000000000000e+00 0.0000000000000000e+00
7.2000000000000002e+00 0.0000000000000000e+00 0.0000000000000000e+00
7.3000000000000007e+00 0.0000000000000000e+00 0.0000000000000000e+00
7.4000000000000004e+00 0.0000000000000000e+00 0.0000000000000000e+00
7.5000000000000000e+00 0.0000000000000000e+00 0.0000000000000000e+00
7.6000000000000005e+00 0.0000000000000000e+00 0.0000000000000000e+00
7.7000000000000002e+00 0.0000000000000000e+00 0.0000000000000000e+00
7.8000000000000007e+00 0.0000000000000000e+00 0.0000000000000000e+00
7.9000000000000004e+00 0.0000000000000000e+00 0.0000000000000000e+00
8.0000000000000000e+00 0.0000000000000000e+00 0.0000000000000000e+00
8.0999999999999996e+00 0.0000000000000000e+00 0.0000000000000000e+00
8.2000000000000011e+00 0.0000000000000000e+00 0.0000000000000000e+00
8.3000000000000007e+00 0.0000000000000000e+00 0.0000000000000000e+00
8.4000000000000004e+00 0.0000000000000000e+00 0.0000000000000000e+00
8.5000000000000000e+00 0.0000000000000000e+00 0.0000000000000000e+00
8.5999999999999996e+00 0.0000000000000000e+00 0.0000000000000000e+00
8.7000000000000011e+00 0.0000000000000000e+00 0.0000000000000000e+00
8.8000000000000007e+00 0.0000000000000000e+00 0.0000000000000000e+00
8.9000000000000004e+00 0.0000000000000000e+00 0.0000000000000000e+00
9.0000000000000000e+00 0.0000000000000000e+00 0.0000000000000000e+00
9.0999999999999996e+00 0.0000000000000000e+00 0.0000000000000000e+00
9.2000000000000011e+00 0.0000000000000000e+00 0.0000000000000000e+00
9.3000000000000007e+00 0.0000000000000000e+00 0.0000000000000000e+00
9.4000000000000004e+00 0.0000000000000000e+00 0.0000000000000000e+00
9.5000000000000000e+00 0.0000000000000000e+00 0.0000000000000000e+00
9.6000000000000014e+00 0.0000000000000000e+00 0.0000000000000000e+00
9.7000000000000011e+00 0.0000000000000000e+00 0.0000000000000000e+00
9.8000000000000007e+00 0.0000000000000000e+00 0.0000000000000000e+00
9.9000000000000004e+00 0.0000000000000000e+00 0.0000000000000000e+00
1.0000000000000000e+01 0.0000000000000000e+00 0.0000000000000000e+00

POINT_DATA 101

VECTORS velocity float
4.0832326768003755e+00 0.0000000000000000e+00 0.0000000000000000e+00
4.0836610930450066e+00 0.0000000000000000e+00 0.0000000000000000e+00
4.0840946600749577e+00 0.0000000000000000e+00 0.0000000000000000e+00
4.0845278499861406e+00 0.0000000000000000e+00 0.0000000000000000e+00
4.0849580325786157e+00 0.0000000000000000e+00 0.0000000000000000e+00
4.0853854066284079e+00 0.0000000000000000e+00 0.0000000000000000e+00
4.0858125542933896e+00 0.0000000000000000e+00 0.0000000000000000e+00
4.0862376130048883e+00 0.0000000000000000e+00 0.0000000000000000e+00
4.0866561749447472e+00 0.0000000000000000e+00 0.0000000000000000e+00
4.0870670498771133e+00 0.0000000000000000e+00 0.0000000000000000e+00
4.0874713938391594e+00 0.0000000000000000e+00 0.0000000000000000e+00
4.0878700217105273e+00 0.0000000000000000e+00 0.0000000000000000e+00
4.0882644020613910e+00 0.0000000000000000e+00 0.0000000000000000e+00
4.0886568740458644e+00 0.0000000000000000e+00 0.0000000000000000e+00
4.0890470735713667e+00 0.0000000000000000e+00 0.0000000000000000e+00
4.0894340130978444e+00 0.0000000000000000e+00 0.0000000000000000e+00
4.0898146491479697e+00 0.0000000000000000e+00 0.0000000000000000e+00
4.0901870228044039e+00 0.0000000000000000e+00 0.0000000000000000e+00
4.0905541355379098e+00 0.0000000000000000e+00 0.0000000000000000e+00
4.0909175638193833e+00 0.0000000000000000e+00 0.0000000000000000e+00
4.0912766505173286e+00 0.0000000000000000e+00 0.0000000000000000e+00
4.0916311738199251e+00 0.0000000000000000e+00 0.0000000000000000e+00
4.0919810447708844e+00 0.0000000000000000e+00 0.0000000000000000e+00
4.0923260048291494e+00 0.0000000000000000e+00 0.0000000000000000e+00
4.0926680665170316e+00 0.0000000000000000e+00 0.0000000000000000e+00
4.0930061343820769e+00 0.0000000000000000e+00 0.0000000000000000e+00
4.0933385357171499e+00 0.0000000000000000e+00 0.0000000000000000e+00
4.0936658232673819e+00 0.0000000000000000e+00 0.0000000000000000e+00
4.0939883334802749e+00 0.0000000000000000e+00 0.0000000000000000e+00
4.0943056821257588e+00 0.0000000000000000e+00 0.0000000000000000e+00
4.0946176405624115e+00 0.0000000000000000e+00 0.0000000000000000e+00
4.0949246103823196e+00 0.0000000000000000e+00 0.0000000000000000e+00
4.0952270644276298e+00 0.0000000000000000e+00 0.0000000000000000e+00
4.0955253068435518e+00 0.0000000000000000e+00 0.0000000000000000e+00
4.0958191238047732e+00 0.0000000000000000e+00 0.0000000000000000e+00
4.0961083427551621e+00 0.0000000000000000e+00 0.0000000000000000e+00
4.0963928791059923e+00 0.0000000000000000e+00 0.0000000000000000e+00
4.0966727083364880e+00 0.0000000000000000e+00 0.0000000000000000e+00
4.0969477740453533e+00 0.0000000000000000e+00 0.0000000000000000e+00
4.0972181903543579e+00 0.0000000000000000e+00 0.0000000000000000e+00
4.0974841112536557e+00 0.0000000000000000e+00 0.0000000000000000e+00
4.0977454238760496e+00 0.0000000000000000e+00 0.0000000000000000e+00
4.0980020889928568e+00 0.0000000000000000e+00 0.0000000000000000e+00
4.0982540893244570e+00 0.0000000000000000e+00 0.0000000000000000e+00
4.0985014171548375e+00 0.0000000000000000e+00 0.0000000000000000e+00
4.0987440683203715e+00 0.0000000000000000e+00 0.0000000000000000e+00
4.0989820409888953e+00 0.0000000000000000e+00 0.0000000000000000e+00
4.0992153351980489e+00 0.0000000000000000e+00 0.0000000000000000e+00
4.0994439516141696e+00 0.0000000000000000e+00 0.0000000000000000e+00
4.0996678905925652e+00 0.0000000000000000e+00 0.0000000000000000e+00
4.0998871521452962e+00 0.0000000000000000e+00 0.0000000000000000e+00
4.1001017368295152e+00 0.0000000000000000e+00 0.0000000000000000e+00
4.1003116450361965e+00 0.0000000000000000e+00 0.0000000000000000e+00
4.1005168773325478e+00 0.0000000000000000e+00 0.0000000000000000e+00
4.1007174344847792e+00 0.0000000000000000e+00 0.0000000000000000e+00
4.1009133170910212e+00 0.0000000000000000e+00 0.0000000000000000e+00
4.1011045252280969e+00 0.0000000000000000e+00 0.0000000000000000e+00
4.1012910593384104e+00 0.0000000000000000e+00 0.0000000000000000e+00
4.1014729205717027e+00 0.0000000000000000e+00 0.0000000000000000e+00
4.1016501094617217e+00 0.0000000000000000e+00 0.0000000000000000e+00
4.1018226265160997e+00 0.0000000000000000e+00 0.0000000000000000e+00
4.1019904727382279e+00 0.0000000000000000e+00 0.0000000000000000e+00
4.1021536489545252e+00 0.0000000000000000e+00 0.0000000000000000e+00
4.1023121554629887e+00 0.0000000000000000e+00 0.0000000000000000e+00
4.1024659928197593e+00 0.0000000000000000e+00 0.0000000000000000e+00
4.1026151616951996e+00 0.0000000000000000e+00 0.0000000000000000e+00
4.1027596627099152e+00 0.0000000000000000e+00 0.0000000000000000e+00
4.1028994966040875e+00 0.0000000000000000e+00 0.0000000000000000e+00
4.1030346641240500e+00 0.0000000000000000e+00 0.0000000000000000e+00
4.1031651659811734e+00 0.0000000000000000e+00 0.0000000000000000e+00
4.1032910029009342e+00 0.0000000000000000e+00 0.0000000000000000e+00
4.1034121757108473e+00 0.0000000000000000e+00 0.0000000000000000e+00
4.1035286852409119e+00 0.0000000000000000e+00 0.0000000000000000e+00
4.1036405322631477e+00 0.0000000000000000e+00 0.0000000000000000e+00
4.1037477177024382e+00 0.0000000000000000e+00 0.0000000000000000e+00
4.1038502421109637e+00 0.0000000000000000e+00 0.0000000000000000e+00
4.1039481064509680e+00 0.0000000000000000e+00 0.0000000000000000e+00
4.1040413112802696e+00 0.0000000000000000e+00 0.0000000000000000e+00
4.1041298577611443e+00 0.0000000000000000e+00 0.0000000000000000e+00
4.1042137475420697e+00 0.0000000000000000e+00 0.0000000000000000e+00
4.1042929808546784e+00 0.0000000000000000e+00 0.0000000000000000e+00
4.1043675584676924e+00 0.0000000000000000e+00 0.0000000000000000e+00
4.1044374812452400e+00 0.0000000000000000e+00 0.0000000000000000e+00
4.1045027507157137e+00 0.0000000000000000e+00 0.0000000000000000e+00
4.1045633674453619e+00 0.0000000000000000e+00 0.0000000000000000e+00
4.1046193318456039e+00 0.0000000000000000e+00 0.0000000000000000e+00
4.1046706444632335e+00 0.0000000000000000e+00 0.0000000000000000e+00
4.1047173057057522e+00 0.0000000000000000e+00 0.0000000000000000e+00
4.1047593183993794e+00 0.0000000000000000e+00 0.0000000000000000e+00
4.1047966827032001e+00 0.0000000000000000e+00 0.0000000000000000e+00
4.1048294016777840e+00 0.0000000000000000e+00 0.0000000000000000e+00
4.1048574732010721e+00 0.0000000000000000e+00 0.0000000000000000e+00
4.1048809026557320e+00 0.0000000000000000e+00 0.0000000000000000e+00
4.1048996799692299e+00 0.0000000000000000e+00 0.0000000000000000e+00
4.1049138352276158e+00 0.0000000000000000e+00 0.0000000000000000e+00
4.1049232970285994e+00 0.0000000000000000e+00 0.0000000000000000e+00
4.1049282448170574e+00 0.0000000000000000e+00 0.0000000000000000e+00
4.1049282405054690e+00 0.0000000000000000e+00 0.0000000000000000e+00
4.1049243652914820e+00 0.0000000000000000e+00 0.0000000000000000e+00
4.1049139673139923e+00 0.0000000000000000e+00 0.0000000000000000e+00
4.1049035693365026e+00 0.0000000000000000e+00 0.0000000000000000e+00


SCALARS pressure float
LOOKUP_TABLE default
-5.5772138018070283e+00
-5.5239921605267996e+00
-5.4707705192465701e+00
-5.4175257237440073e+00
-5.3642367705146192e+00
-5.3108935595081981e+00
-5.2574968357228311e+00
-5.2040569936629923e+00
-5.1505682291654340e+00
-5.0970131995006849e+00
-5.0433859745775749e+00
-4.9896905960236255e+00
-4.9359306946924200e+00
-4.8821124200730370e+00
-4.8282453600051056e+00
-4.7743290162472807e+00
-4.7203600029440400e+00
-4.6663269752980634e+00
-4.6122214268559878e+00
-4.5580539997129152e+00
-4.5038317776095553e+00
-4.4495532468572323e+00
-4.3952181703446938e+00
-4.3408268257669125e+00
-4.2863784313131132e+00
-4.2318794709251017e+00
-4.1773259691999192e+00
-4.1227121771591264e+00
-4.0680402270166685e+00
-4.0133118731288029e+00
-3.9585261582237736e+00
-3.9036825264529225e+00
-3.8487827990202392e+00
-3.7938291570473526e+00
-3.7388229398621164e+00
-3.6837634733904419e+00
-3.6286501731919616e+00
-3.5734828248207493e+00
-3.5182614926085383e+00
-3.4629861296884239e+00
-3.4076573908838630e+00
-3.3522762433367994e+00
-3.2968426103436115e+00
-3.2413565918375382e+00
-3.1858183748467019e+00
-3.1302281843753930e+00
-3.0745862584405743e+00
-3.0188928427781541e+00
-2.9631481903096293e+00
-2.9073525563580955e+00
-2.8515061945233917e+00
-2.7956093561340523e+00
-2.7396622937377191e+00
-2.6836652588449774e+00
-2.6276185031528976e+00
-2.5715222786685286e+00
-2.5153768363823144e+00
-2.4591824247009137e+00
-2.4029392926006645e+00
-2.3466476914727377e+00
-2.2903078701855257e+00
-2.2339200769230265e+00
-2.1774845613954157e+00
-2.1210015724975144e+00
-2.0644713566280188e+00
-2.0078941605801317e+00
-1.9512702312817805e+00
-1.8945998151596697e+00
-1.8378831587382247e+00
-1.7811205082858617e+00
-1.7243121096538170e+00
-1.6674582084829401e+00
-1.6105590505970508e+00
-1.5536148817185733e+00
-1.4966259471554053e+00
-1.4395924926357828e+00
-1.3825147622723875e+00
-1.3253930014076654e+00
-1.2682274537729861e+00
-1.2110183651944295e+00
-1.1537659838815029e+00
-1.0964705524445675e+00
-1.0391323149220395e+00
-9.8175151577882336e-01
-9.2432840228379176e-01
-8.6686321813839984e-01
-8.0935620582157741e-01
-7.5180760775617705e-01
-6.9421766632685566e-01
-6.3658663424006656e-01
-5.7891475442238582e-01
-5.2120227959686094e-01
-4.6344944340348604e-01
-4.0565650677590431e-01
-3.4782367520076340e-01
-2.8995130018522070e-01
-2.3203936503889225e-01
-1.7408876325962550e-01
-1.1609814811587574e-01
-5.8071685097833010e-02
0.0000000000000000e+00


SCALARS diameter float
LOOKUP_TABLE default
9.9949468947927111e-01
9.9950179101197056e-01
9.9950694443442789e-01
9.9951214813963496e-01
9.9951734584410568e-01
9.9952257993245897e-01
9.9952637504642383e-01
9.9952933186633242e-01
9.9953351548508751e-01
9.9953889960166264e-01
9.9954468225044779e-01
9.9955050198472983e-01
9.9955619853518596e-01
9.9956084932579436e-01
9.9956466101545771e-01
9.9956840403589287e-01
9.9957251007895076e-01
9.9957836399740807e-01
9.9958403224515147e-01
9.9958899063907880e-01
9.9959386186763000e-01
9.9959884939373878e-01
9.9960381068015813e-01
9.9960899165298034e-01
9.9961374078119491e-01
9.9961778882763663e-01
9.9962261099960747e-01
9.9962743858325642e-01
9.9963227845042635e-01
9.9963716123529711e-01
9.9964239814594080e-01
9.9964764593254340e-01
9.9965286694864952e-01
9.9965789490417623e-01
9.9966287686294608e-01
9.9966786907214045e-01
9.9967287193472099e-01
9.9967788581962691e-01
9.9968291049739288e-01
9.9968793975596815e-01
9.9969286733510232e-01
9.9969780170570177e-01
9.9970274425516736e-01
9.9970769499781298e-01
9.9971265393652786e-01
9.9971762130899711e-01
9.9972259730832946e-01
9.9972758139863238e-01
9.9973257343242328e-01
9.9973757317385414e-01
9.9974258086895629e-01
9.9974759622577403e-01
9.9975261915087077e-01
9.9975764952866142e-01
9.9976268712168614e-01
9.9976773181212342e-01
9.9977278361523381e-01
9.9977784258149838e-01
9.9978290817706428e-01
9.9978798037265415e-01
9.9979305913291261e-01
9.9979814419621993e-01
9.9980323531252235e-01
9.9980833258271695e-01
9.9981343590869209e-01
9.9981854509772228e-01
9.9982366006345513e-01
9.9982878064712699e-01
9.9983390669046646e-01
9.9983903807545127e-01
9.9984417466619602e-01
9.9984931631446750e-01
9.9985446284296509e-01
9.9985961415888502e-01
9.9986477008490260e-01
9.9986993052739481e-01
9.9987509545062869e-01
9.9988026452367296e-01
9.9988543791783502e-01
9.9989061472719443e-01
9.9989579549873331e-01
9.9990097998014638e-01
9.9990616803522914e-01
9.9991135937020825e-01
9.9991655374739008e-01
9.9992175167881203e-01
9.9992695256436348e-01
9.9993215692316217e-01
9.9993736347560291e-01
9.9994257263577146e-01
9.9994778401973494e-01
9.9995299734355492e-01
9.9995821346188685e-01
9.9996343104147078e-01
9.9996865068518459e-01
9.9997387191636899e-01
9.9997909481800573e-01
9.9998431919145148e-01
9.9998954474890622e-01
9.9999477106288048e-01
9.9999999844330900e-01


SCALARS iters float
LOOKUP_TABLE default
4.0000000000000000e+00
4.0000000000000000e+00
4.0000000000000000e+00
4.0000000000000000e+00
4.0000000000000000e+00
4.0000000000000000e+00
4.0000000000000000e+00
4.0000000000000000e+00
4.0000000000000000e+00
4.0000000000000000e+00
4.0000000000000000e+00
4.0000000000000000e+00
4.0000000000000000e+00
4.0000000000000000e+00
4.0000000000000000e+00
4.0000000000000000e+00
4.0000000000000000e+00
4.0000000000000000e+00
4.0000000000000000e+00
4.0000000000000000e+00
4.0000000000000000e+00
4.0000000000000000e+00
4.0000000000000000e+00
4.0000000000000000e+00
4.0000000000000000e+00
4.0000000000000000e+00
4.0000000000000000e+00
4.0000000000000000e+00
4.0000000000000000e+00
4.0000000000000000e+00
4.0000000000000000e+00
4.0000000000000000e+00
4.0000000000000000e+00
4.0000000000000000e+00
4.0000000000000000e+00
4.0000000000000000e+00
4.0000000000000000e+00
4.0000000000000000e+00
4.0000000000000000e+00
4.0000000000000000e+00
4.0000000000000000e+00
4.0000000000000000e+00
4.0000000000000000e+00
4.0000000000000000e+00
4.0000000000000000e+00
4.0000000000000000e+00
4.0000000000000000e+00
4.0000000000000000e+00
4.0000000000000000e+00
4.0000000000000000e+00
4.0000000000000000e+00
4.0000000000000000e+00
4.0000000000000000e+00
4.0000000000000000e+00
4.0000000000000000e+00
4.0000000000000000e+00
4.0000000000000000e+00
4.0000000000000000e+00
4.0000000000000000e+00
4.0000000000000000e+00
4.0000000000000000e+00
4.0000000000000000e+00
4.0000000000000000e+00
4.0000000000000000e+00
4.0000000000000000e+00
4.0000000000000000e+00
4.0000000000000000e+00
4.0000000000000000e+00
4.0000000000000000e+00
4.0000000000000000e+00
4.0000000000000000e+00
4.0000000000000000e+00
4.0000000000000000e+00
4.0000000000000000e+00
4.0000000000000000e+00
4.0000000000000000e+00
4.0000000000000000e+00
4.0000000000000000e+00
4.0000000000000000e+00
4.0000000000000000e+00
4.0000000000000000e+00
4.0000000000000000e+00
4.0000000000000000e+00
4.0000000000000000e+00
4.0000000000000000e+00
4.0000000000000000e+00
4.0000000000000000e+00
4.0000000000000000e+00
4.0000000000000000e+00
4.0000000000000000e+00
4.0000000000000000e+00
4.0000000000000000e+00
4.0000000000000000e+00
4.0000000000000000e+00
4.0000000000000000e+00
4.0000000000000000e+00
4.0000000000000000e+00
4.0000000000000000e+00
4.0000000000000000e+00
4.0000000000000000e+00
4.0000000000000000e+00


