# vtk DataFile Version 2.0

ASCII

DATASET UNSTRUCTURED_GRID

POINTS 101 float

0.0000000000000000e+00 0.0000000000000000e+00 0.0000000000000000e+00
1.0000000000000001e-01 0.0000000000000000e+00 0.0000000000000000e+00
2.0000000000000001e-01 0.0000000000000000e+00 0.0000000000000000e+00
3.0000000000000004e-01 0.0000000000000000e+00 0.0000000000000000e+00
4.0000000000000002e-01 0.0000000000000000e+00 0.0000000000000000e+00
5.0000000000000000e-01 0.0000000000000000e+00 0.0000000000000000e+00
6.0000000000000009e-01 0.0000000000000000e+00 0.0000000000000000e+00
7.0000000000000007e-01 0.0000000000000000e+00 0.0000000000000000e+00
8.0000000000000004e-01 0.0000000000000000e+00 0.0000000000000000e+00
9.0000000000000002e-01 0.0000000000000000e+00 0.0000000000000000e+00
1.0000000000000000e+00 0.0000000000000000e+00 0.0000000000000000e+00
1.1000000000000001e+00 0.0000000000000000e+00 0.0000000000000000e+00
1.2000000000000002e+00 0.0000000000000000e+00 0.0000000000000000e+00
1.3000000000000000e+00 0.0000000000000000e+00 0.0000000000000000e+00
1.4000000000000001e+00 0.0000000000000000e+00 0.0000000000000000e+00
1.5000000000000000e+00 0.0000000000000000e+00 0.0000000000000000e+00
1.6000000000000001e+00 0.0000000000000000e+00 0.0000000000000000e+00
1.7000000000000002e+00 0.0000000000000000e+00 0.0000000000000000e+00
1.8000000000000000e+00 0.0000000000000000e+00 0.0000000000000000e+00
1.9000000000000001e+00 0.0000000000000000e+00 0.0000000000000000e+00
2.0000000000000000e+00 0.0000000000000000e+00 0.0000000000000000e+00
2.1000000000000001e+00 0.0000000000000000e+00 0.0000000000000000e+00
2.2000000000000002e+00 0.0000000000000000e+00 0.0000000000000000e+00
2.3000000000000003e+00 0.0000000000000000e+00 0.0000000000000000e+00
2.4000000000000004e+00 0.0000000000000000e+00 0.0000000000000000e+00
2.5000000000000000e+00 0.0000000000000000e+00 0.0000000000000000e+00
2.6000000000000001e+00 0.0000000000000000e+00 0.0000000000000000e+00
2.7000000000000002e+00 0.0000000000000000e+00 0.0000000000000000e+00
2.8000000000000003e+00 0.0000000000000000e+00 0.0000000000000000e+00
2.9000000000000004e+00 0.0000000000000000e+00 0.0000000000000000e+00
3.0000000000000000e+00 0.0000000000000000e+00 0.0000000000000000e+00
3.1000000000000001e+00 0.0000000000000000e+00 0.0000000000000000e+00
3.2000000000000002e+00 0.0000000000000000e+00 0.0000000000000000e+00
3.3000000000000003e+00 0.0000000000000000e+00 0.0000000000000000e+00
3.4000000000000004e+00 0.0000000000000000e+00 0.0000000000000000e+00
3.5000000000000000e+00 0.0000000000000000e+00 0.0000000000000000e+00
3.6000000000000001e+00 0.0000000000000000e+00 0.0000000000000000e+00
3.7000000000000002e+00 0.0000000000000000e+00 0.0000000000000000e+00
3.8000000000000003e+00 0.0000000000000000e+00 0.0000000000000000e+00
3.9000000000000004e+00 0.0000000000000000e+00 0.0000000000000000e+00
4.0000000000000000e+00 0.0000000000000000e+00 0.0000000000000000e+00
4.1000000000000005e+00 0.0000000000000000e+00 0.0000000000000000e+00
4.2000000000000002e+00 0.0000000000000000e+00 0.0000000000000000e+00
4.2999999999999998e+00 0.0000000000000000e+00 0.0000000000000000e+00
4.4000000000000004e+00 0.0000000000000000e+00 0.0000000000000000e+00
4.5000000000000000e+00 0.0000000000000000e+00 0.0000000000000000e+00
4.6000000000000005e+00 0.0000000000000000e+00 0.0000000000000000e+00
4.7000000000000002e+00 0.0000000000000000e+00 0.0000000000000000e+00
4.8000000000000007e+00 0.0000000000000000e+00 0.0000000000000000e+00
4.9000000000000004e+00 0.0000000000000000e+00 0.0000000000000000e+00
5.0000000000000000e+00 0.0000000000000000e+00 0.0000000000000000e+00
5.1000000000000005e+00 0.0000000000000000e+00 0.0000000000000000e+00
5.2000000000000002e+00 0.0000000000000000e+00 0.0000000000000000e+00
5.3000000000000007e+00 0.0000000000000000e+00 0.0000000000000000e+00
5.4000000000000004e+00 0.0000000000000000e+00 0.0000000000000000e+00
5.5000000000000000e+00 0.0000000000000000e+00 0.0000000000000000e+00
5.6000000000000005e+00 0.0000000000000000e+00 0.0000000000000000e+00
5.7000000000000002e+00 0.0000000000000000e+00 0.0000000000000000e+00
5.8000000000000007e+00 0.0000000000000000e+00 0.0000000000000000e+00
5.9000000000000004e+00 0.0000000000000000e+00 0.0000000000000000e+00
6.0000000000000000e+00 0.0000000000000000e+00 0.0000000000000000e+00
6.1000000000000005e+00 0.0000000000000000e+00 0.0000000000000000e+00
6.2000000000000002e+00 0.0000000000000000e+00 0.0000000000000000e+00
6.3000000000000007e+00 0.0000000000000000e+00 0.0000000000000000e+00
6.4000000000000004e+00 0.0000000000000000e+00 0.0000000000000000e+00
6.5000000000000000e+00 0.0000000000000000e+00 0.0000000000000000e+00
6.6000000000000005e+00 0.0000000000000000e+00 0.0000000000000000e+00
6.7000000000000002e+00 0.0000000000000000e+00 0.0000000000000000e+00
6.8000000000000007e+00 0.0000000000000000e+00 0.0000000000000000e+00
6.9000000000000004e+00 0.0000000000000000e+00 0.0000000000000000e+00
7.0000000000000000e+00 0.0000000000000000e+00 0.0000000000000000e+00
7.1000000000000005e+00 0.0000000000000000e+00 0.0000000000000000e+00
7.2000000000000002e+00 0.0000000000000000e+00 0.0000000000000000e+00
7.3000000000000007e+00 0.0000000000000000e+00 0.0000000000000000e+00
7.4000000000000004e+00 0.0000000000000000e+00 0.0000000000000000e+00
7.5000000000000000e+00 0.0000000000000000e+00 0.0000000000000000e+00
7.6000000000000005e+00 0.0000000000000000e+00 0.0000000000000000e+00
7.7000000000000002e+00 0.0000000000000000e+00 0.0000000000000000e+00
7.8000000000000007e+00 0.0000000000000000e+00 0.0000000000000000e+00
7.9000000000000004e+00 0.0000000000000000e+00 0.0000000000000000e+00
8.0000000000000000e+00 0.0000000000000000e+00 0.0000000000000000e+00
8.0999999999999996e+00 0.0000000000000000e+00 0.0000000000000000e+00
8.2000000000000011e+00 0.0000000000000000e+00 0.0000000000000000e+00
8.3000000000000007e+00 0.0000000000000000e+00 0.0000000000000000e+00
8.4000000000000004e+00 0.0000000000000000e+00 0.0000000000000000e+00
8.5000000000000000e+00 0.0000000000000000e+00 0.0000000000000000e+00
8.5999999999999996e+00 0.0000000000000000e+00 0.0000000000000000e+00
8.7000000000000011e+00 0.0000000000000000e+00 0.0000000000000000e+00
8.8000000000000007e+00 0.0000000000000000e+00 0.0000000000000000e+00
8.9000000000000004e+00 0.0000000000000000e+00 0.0000000000000000e+00
9.0000000000000000e+00 0.0000000000000000e+00 0.0000000000000000e+00
9.0999999999999996e+00 0.0000000000000000e+00 0.0000000000000000e+00
9.2000000000000011e+00 0.0000000000000000e+00 0.0000000000000000e+00
9.3000000000000007e+00 0.0000000000000000e+00 0.0000000000000000e+00
9.4000000000000004e+00 0.0000000000000000e+00 0.0000000000000000e+00
9.5000000000000000e+00 0.0000000000000000e+00 0.0000000000000000e+00
9.6000000000000014e+00 0.0000000000000000e+00 0.0000000000000000e+00
9.7000000000000011e+00 0.0000000000000000e+00 0.0000000000000000e+00
9.8000000000000007e+00 0.0000000000000000e+00 0.0000000000000000e+00
9.9000000000000004e+00 0.0000000000000000e+00 0.0000000000000000e+00
1.0000000000000000e+01 0.0000000000000000e+00 0.0000000000000000e+00

POINT_DATA 101

VECTORS velocity float
4.3959395717314047e+00 0.0000000000000000e+00 0.0000000000000000e+00
4.3958990572215608e+00 0.0000000000000000e+00 0.0000000000000000e+00
4.3958575097821617e+00 0.0000000000000000e+00 0.0000000000000000e+00
4.3958125934589081e+00 0.0000000000000000e+00 0.0000000000000000e+00
4.3957647209451816e+00 0.0000000000000000e+00 0.0000000000000000e+00
4.3957172086097316e+00 0.0000000000000000e+00 0.0000000000000000e+00
4.3956737690753878e+00 0.0000000000000000e+00 0.0000000000000000e+00
4.3956335558197575e+00 0.0000000000000000e+00 0.0000000000000000e+00
4.3955934038858846e+00 0.0000000000000000e+00 0.0000000000000000e+00
4.3955529217408777e+00 0.0000000000000000e+00 0.0000000000000000e+00
4.3955128425499073e+00 0.0000000000000000e+00 0.0000000000000000e+00
4.3954735280122676e+00 0.0000000000000000e+00 0.0000000000000000e+00
4.3954363564733612e+00 0.0000000000000000e+00 0.0000000000000000e+00
4.3954036019314042e+00 0.0000000000000000e+00 0.0000000000000000e+00
4.3953747222305433e+00 0.0000000000000000e+00 0.0000000000000000e+00
4.3953487053533378e+00 0.0000000000000000e+00 0.0000000000000000e+00
4.3953209436969605e+00 0.0000000000000000e+00 0.0000000000000000e+00
4.3952888653683733e+00 0.0000000000000000e+00 0.0000000000000000e+00
4.3952575780381595e+00 0.0000000000000000e+00 0.0000000000000000e+00
4.3952296577827434e+00 0.0000000000000000e+00 0.0000000000000000e+00
4.3952040706712907e+00 0.0000000000000000e+00 0.0000000000000000e+00
4.3951798532019204e+00 0.0000000000000000e+00 0.0000000000000000e+00
4.3951571563356788e+00 0.0000000000000000e+00 0.0000000000000000e+00
4.3951361243126428e+00 0.0000000000000000e+00 0.0000000000000000e+00
4.3951195462325794e+00 0.0000000000000000e+00 0.0000000000000000e+00
4.3951056045785224e+00 0.0000000000000000e+00 0.0000000000000000e+00
4.3950907855352455e+00 0.0000000000000000e+00 0.0000000000000000e+00
4.3950764664425419e+00 0.0000000000000000e+00 0.0000000000000000e+00
4.3950632568009418e+00 0.0000000000000000e+00 0.0000000000000000e+00
4.3950507190359449e+00 0.0000000000000000e+00 0.0000000000000000e+00
4.3950385557895881e+00 0.0000000000000000e+00 0.0000000000000000e+00
4.3950272511290649e+00 0.0000000000000000e+00 0.0000000000000000e+00
4.3950175940177845e+00 0.0000000000000000e+00 0.0000000000000000e+00
4.3950104358042426e+00 0.0000000000000000e+00 0.0000000000000000e+00
4.3950054137462331e+00 0.0000000000000000e+00 0.0000000000000000e+00
4.3950021092772902e+00 0.0000000000000000e+00 0.0000000000000000e+00
4.3950003774265598e+00 0.0000000000000000e+00 0.0000000000000000e+00
4.3950000943085961e+00 0.0000000000000000e+00 0.0000000000000000e+00
4.3950013330573334e+00 0.0000000000000000e+00 0.0000000000000000e+00
4.3950037215258009e+00 0.0000000000000000e+00 0.0000000000000000e+00
4.3950069394256825e+00 0.0000000000000000e+00 0.0000000000000000e+00
4.3950113249687366e+00 0.0000000000000000e+00 0.0000000000000000e+00
4.3950169885103403e+00 0.0000000000000000e+00 0.0000000000000000e+00
4.3950239834872304e+00 0.0000000000000000e+00 0.0000000000000000e+00
4.3950323360497574e+00 0.0000000000000000e+00 0.0000000000000000e+00
4.3950420584764700e+00 0.0000000000000000e+00 0.0000000000000000e+00
4.3950531566844102e+00 0.0000000000000000e+00 0.0000000000000000e+00
4.3950656331158635e+00 0.0000000000000000e+00 0.0000000000000000e+00
4.3950794894048961e+00 0.0000000000000000e+00 0.0000000000000000e+00
4.3950947264504130e+00 0.0000000000000000e+00 0.0000000000000000e+00
4.3951113440994485e+00 0.0000000000000000e+00 0.0000000000000000e+00
4.3951293430432257e+00 0.0000000000000000e+00 0.0000000000000000e+00
4.3951487228836843e+00 0.0000000000000000e+00 0.0000000000000000e+00
4.3951694831556694e+00 0.0000000000000000e+00 0.0000000000000000e+00
4.3951916240497777e+00 0.0000000000000000e+00 0.0000000000000000e+00
4.3952151455996598e+00 0.0000000000000000e+00 0.0000000000000000e+00
4.3952400474655455e+00 0.0000000000000000e+00 0.0000000000000000e+00
4.3952663295390559e+00 0.0000000000000000e+00 0.0000000000000000e+00
4.3952939920504148e+00 0.0000000000000000e+00 0.0000000000000000e+00
4.3953230346603229e+00 0.0000000000000000e+00 0.0000000000000000e+00
4.3953534569146484e+00 0.0000000000000000e+00 0.0000000000000000e+00
4.3953852591990321e+00 0.0000000000000000e+00 0.0000000000000000e+00
4.3954184417120636e+00 0.0000000000000000e+00 0.0000000000000000e+00
4.3954530039976962e+00 0.0000000000000000e+00 0.0000000000000000e+00
4.3954889459050399e+00 0.0000000000000000e+00 0.0000000000000000e+00
4.3955262673253612e+00 0.0000000000000000e+00 0.0000000000000000e+00
4.3955649681047229e+00 0.0000000000000000e+00 0.0000000000000000e+00
4.3956050482043292e+00 0.0000000000000000e+00 0.0000000000000000e+00
4.3956465075287197e+00 0.0000000000000000e+00 0.0000000000000000e+00
4.3956893459125270e+00 0.0000000000000000e+00 0.0000000000000000e+00
4.3957335632446322e+00 0.0000000000000000e+00 0.0000000000000000e+00
4.3957791595297682e+00 0.0000000000000000e+00 0.0000000000000000e+00
4.3958261347521033e+00 0.0000000000000000e+00 0.0000000000000000e+00
4.3958744887231411e+00 0.0000000000000000e+00 0.0000000000000000e+00
4.3959242213682836e+00 0.0000000000000000e+00 0.0000000000000000e+00
4.3959753324302682e+00 0.0000000000000000e+00 0.0000000000000000e+00
4.3960278217193611e+00 0.0000000000000000e+00 0.0000000000000000e+00
4.3960816890991472e+00 0.0000000000000000e+00 0.0000000000000000e+00
4.3961369345286725e+00 0.0000000000000000e+00 0.0000000000000000e+00
4.3961935580754341e+00 0.0000000000000000e+00 0.0000000000000000e+00
4.3962515597346465e+00 0.0000000000000000e+00 0.0000000000000000e+00
4.3963109394728397e+00 0.0000000000000000e+00 0.0000000000000000e+00
4.3963716970835627e+00 0.0000000000000000e+00 0.0000000000000000e+00
4.3964338318386309e+00 0.0000000000000000e+00 0.0000000000000000e+00
4.3964973437722739e+00 0.0000000000000000e+00 0.0000000000000000e+00
4.3965622339496147e+00 0.0000000000000000e+00 0.0000000000000000e+00
4.3966285026977738e+00 0.0000000000000000e+00 0.0000000000000000e+00
4.3966961480853941e+00 0.0000000000000000e+00 0.0000000000000000e+00
4.3967651695642660e+00 0.0000000000000000e+00 0.0000000000000000e+00
4.3968355668966934e+00 0.0000000000000000e+00 0.0000000000000000e+00
4.3969073417628675e+00 0.0000000000000000e+00 0.0000000000000000e+00
4.3969804956666305e+00 0.0000000000000000e+00 0.0000000000000000e+00
4.3970550256340371e+00 0.0000000000000000e+00 0.0000000000000000e+00
4.3971309343785556e+00 0.0000000000000000e+00 0.0000000000000000e+00
4.3972082140942144e+00 0.0000000000000000e+00 0.0000000000000000e+00
4.3972868832072374e+00 0.0000000000000000e+00 0.0000000000000000e+00
4.3973668952315377e+00 0.0000000000000000e+00 0.0000000000000000e+00
4.3974483672614708e+00 0.0000000000000000e+00 0.0000000000000000e+00
4.3975310011984732e+00 0.0000000000000000e+00 0.0000000000000000e+00
4.3976155532943952e+00 0.0000000000000000e+00 0.0000000000000000e+00
4.3977001053903182e+00 0.0000000000000000e+00 0.0000000000000000e+00


SCALARS pressure float
LOOKUP_TABLE default
2.2277859708684659e+01
2.2054923638165651e+01
2.1831987567646646e+01
2.1609063551247385e+01
2.1386163127345888e+01
2.1163286798831205e+01
2.0940422284567610e+01
2.0717554210989018e+01
2.0494684941089957e+01
2.0271827867089414e+01
2.0048986315976645e+01
1.9826157960670990e+01
1.9603341241755601e+01
1.9380530546734132e+01
1.9157716344954348e+01
1.8934899716681166e+01
1.8712084568911042e+01
1.8489289622825432e+01
1.8266527278369963e+01
1.8043778683411333e+01
1.7821030924524830e+01
1.7598285990446364e+01
1.7375547361574256e+01
1.7152814413239703e+01
1.6930086223211951e+01
1.6707351524369294e+01
1.6484616291904675e+01
1.6261894634783342e+01
1.6039182687041258e+01
1.5816477450799994e+01
1.5593780122683654e+01
1.5371091713738977e+01
1.5148410207935868e+01
1.4925731943840580e+01
1.4703052871013977e+01
1.4480373636823414e+01
1.4257695640142780e+01
1.4035019308022687e+01
1.3812344881184881e+01
1.3589671804740073e+01
1.3367001220893178e+01
1.3144334317385283e+01
1.2921669716134664e+01
1.2699006621009554e+01
1.2476344519217882e+01
1.2253683032605350e+01
1.2031021849445361e+01
1.1808360687814401e+01
1.1585699280131049e+01
1.1363037361240789e+01
1.1140374667188768e+01
1.0917710936345514e+01
1.0695045902223164e+01
1.0472379300248118e+01
1.0249710864533405e+01
1.0027040324739806e+01
9.8043674089312240e+00
9.5816918447549799e+00
9.3590133573159964e+00
9.1363316684902376e+00
8.9136465004564780e+00
8.6909575743298824e+00
8.4682646062012221e+00
8.2455673107701308e+00
8.0228654037066462e+00
7.8001585981867452e+00
7.5774466055403105e+00
7.3547291356785580e+00
7.1320058965587432e+00
6.9092765948196231e+00
6.6865409359301848e+00
6.4637986237350651e+00
6.2410493601639789e+00
6.0182928457479843e+00
5.7955287803448519e+00
5.5727568621143648e+00
5.3499767886420377e+00
5.1271882561224169e+00
4.9043909593202182e+00
4.6815845913749907e+00
4.4587688436685866e+00
4.2359434066906934e+00
4.0131079700477743e+00
3.7902622229372129e+00
3.5674058557485808e+00
3.3445385550379321e+00
3.1216600019763479e+00
2.8987698792974395e+00
2.6758678781099623e+00
2.4529536837924222e+00
2.2300269795295811e+00
2.0070874398198795e+00
1.7841347384021744e+00
1.5611685654679617e+00
1.3381885902302046e+00
1.1151945208326506e+00
8.9218596412044660e-01
6.6916277587564210e-01
4.4612418049922981e-01
2.2307100625411902e-01
0.0000000000000000e+00


SCALARS diameter float
LOOKUP_TABLE default
1.0020180274910886e+00
1.0019949124163143e+00
1.0019727018712030e+00
1.0019521251738186e+00
1.0019328144525959e+00
1.0019135500409537e+00
1.0018931170935828e+00
1.0018718753339855e+00
1.0018515213432024e+00
1.0018317999695157e+00
1.0018122715222120e+00
1.0017927815096586e+00
1.0017731378675450e+00
1.0017524509460625e+00
1.0017309680319821e+00
1.0017094505015391e+00
1.0016886007852128e+00
1.0016702915697333e+00
1.0016515412154330e+00
1.0016315997292073e+00
1.0016113680620116e+00
1.0015913979440811e+00
1.0015714357772250e+00
1.0015514036282755e+00
1.0015306682658576e+00
1.0015089211791257e+00
1.0014887957601759e+00
1.0014686902740375e+00
1.0014485835394928e+00
1.0014285142296768e+00
1.0014088848455840e+00
1.0013892475088930e+00
1.0013695631696520e+00
1.0013493975695218e+00
1.0013290526547005e+00
1.0013087070386557e+00
1.0012883597096618e+00
1.0012680100954094e+00
1.0012476585630796e+00
1.0012273214645020e+00
1.0012072497893514e+00
1.0011871744124341e+00
1.0011670956413317e+00
1.0011470139269527e+00
1.0011269293679375e+00
1.0011068421288338e+00
1.0010867524407581e+00
1.0010666602753777e+00
1.0010465659241488e+00
1.0010264689313535e+00
1.0010063699138161e+00
1.0009862684968815e+00
1.0009661649015551e+00
1.0009460594492205e+00
1.0009259520130493e+00
1.0009058426047515e+00
1.0008857313956447e+00
1.0008656185112377e+00
1.0008455038316582e+00
1.0008253874995503e+00
1.0008052697742646e+00
1.0007851505350418e+00
1.0007650296466408e+00
1.0007449074323631e+00
1.0007247839605213e+00
1.0007046592471611e+00
1.0006845334007546e+00
1.0006644064469752e+00
1.0006442784413649e+00
1.0006241494774102e+00
1.0006040196191686e+00
1.0005838888925960e+00
1.0005637573219852e+00
1.0005436250164677e+00
1.0005234920535584e+00
1.0005033584845973e+00
1.0004832244875737e+00
1.0004630900066676e+00
1.0004429552020313e+00
1.0004228199407252e+00
1.0004026844073663e+00
1.0003825485162061e+00
1.0003624124843744e+00
1.0003422764274865e+00
1.0003221405898581e+00
1.0003020043599391e+00
1.0002818678211256e+00
1.0002617314995859e+00
1.0002415960479702e+00
1.0002214608260167e+00
1.0002013260904059e+00
1.0001811904010518e+00
1.0001610555937019e+00
1.0001409210975578e+00
1.0001207873850366e+00
1.0001006541855229e+00
1.0000805216987034e+00
1.0000603899291913e+00
1.0000402591083251e+00
1.0000201291214632e+00
9.9999999929485983e-01


SCALARS iters float
LOOKUP_TABLE default
3.0000000000000000e+00
3.0000000000000000e+00
3.0000000000000000e+00
3.0000000000000000e+00
3.0000000000000000e+00
3.0000000000000000e+00
3.0000000000000000e+00
3.0000000000000000e+00
3.0000000000000000e+00
3.0000000000000000e+00
3.0000000000000000e+00
3.0000000000000000e+00
3.0000000000000000e+00
3.0000000000000000e+00
3.0000000000000000e+00
3.0000000000000000e+00
3.0000000000000000e+00
3.0000000000000000e+00
3.0000000000000000e+00
3.0000000000000000e+00
3.0000000000000000e+00
3.0000000000000000e+00
3.0000000000000000e+00
3.0000000000000000e+00
3.0000000000000000e+00
3.0000000000000000e+00
3.0000000000000000e+00
3.0000000000000000e+00
3.0000000000000000e+00
3.0000000000000000e+00
3.0000000000000000e+00
3.0000000000000000e+00
3.0000000000000000e+00
3.0000000000000000e+00
3.0000000000000000e+00
3.0000000000000000e+00
3.0000000000000000e+00
3.0000000000000000e+00
3.0000000000000000e+00
3.0000000000000000e+00
3.0000000000000000e+00
3.0000000000000000e+00
3.0000000000000000e+00
3.0000000000000000e+00
3.0000000000000000e+00
3.0000000000000000e+00
3.0000000000000000e+00
3.0000000000000000e+00
3.0000000000000000e+00
3.0000000000000000e+00
3.0000000000000000e+00
3.0000000000000000e+00
3.0000000000000000e+00
3.0000000000000000e+00
3.0000000000000000e+00
3.0000000000000000e+00
3.0000000000000000e+00
3.0000000000000000e+00
3.0000000000000000e+00
3.0000000000000000e+00
3.0000000000000000e+00
3.0000000000000000e+00
3.0000000000000000e+00
3.0000000000000000e+00
3.0000000000000000e+00
3.0000000000000000e+00
3.0000000000000000e+00
3.0000000000000000e+00
3.0000000000000000e+00
3.0000000000000000e+00
3.0000000000000000e+00
3.0000000000000000e+00
3.0000000000000000e+00
3.0000000000000000e+00
3.0000000000000000e+00
3.0000000000000000e+00
3.0000000000000000e+00
3.0000000000000000e+00
3.0000000000000000e+00
3.0000000000000000e+00
3.0000000000000000e+00
3.0000000000000000e+00
3.0000000000000000e+00
3.0000000000000000e+00
3.0000000000000000e+00
3.0000000000000000e+00
3.0000000000000000e+00
3.0000000000000000e+00
3.0000000000000000e+00
3.0000000000000000e+00
3.0000000000000000e+00
3.0000000000000000e+00
3.0000000000000000e+00
3.0000000000000000e+00
3.0000000000000000e+00
3.0000000000000000e+00
3.0000000000000000e+00
3.0000000000000000e+00
3.0000000000000000e+00
3.0000000000000000e+00
3.0000000000000000e+00


