# vtk DataFile Version 2.0

ASCII

DATASET UNSTRUCTURED_GRID

POINTS 101 float

0.0000000000000000e+00 0.0000000000000000e+00 0.0000000000000000e+00
1.0000000000000001e-01 0.0000000000000000e+00 0.0000000000000000e+00
2.0000000000000001e-01 0.0000000000000000e+00 0.0000000000000000e+00
3.0000000000000004e-01 0.0000000000000000e+00 0.0000000000000000e+00
4.0000000000000002e-01 0.0000000000000000e+00 0.0000000000000000e+00
5.0000000000000000e-01 0.0000000000000000e+00 0.0000000000000000e+00
6.0000000000000009e-01 0.0000000000000000e+00 0.0000000000000000e+00
7.0000000000000007e-01 0.0000000000000000e+00 0.0000000000000000e+00
8.0000000000000004e-01 0.0000000000000000e+00 0.0000000000000000e+00
9.0000000000000002e-01 0.0000000000000000e+00 0.0000000000000000e+00
1.0000000000000000e+00 0.0000000000000000e+00 0.0000000000000000e+00
1.1000000000000001e+00 0.0000000000000000e+00 0.0000000000000000e+00
1.2000000000000002e+00 0.0000000000000000e+00 0.0000000000000000e+00
1.3000000000000000e+00 0.0000000000000000e+00 0.0000000000000000e+00
1.4000000000000001e+00 0.0000000000000000e+00 0.0000000000000000e+00
1.5000000000000000e+00 0.0000000000000000e+00 0.0000000000000000e+00
1.6000000000000001e+00 0.0000000000000000e+00 0.0000000000000000e+00
1.7000000000000002e+00 0.0000000000000000e+00 0.0000000000000000e+00
1.8000000000000000e+00 0.0000000000000000e+00 0.0000000000000000e+00
1.9000000000000001e+00 0.0000000000000000e+00 0.0000000000000000e+00
2.0000000000000000e+00 0.0000000000000000e+00 0.0000000000000000e+00
2.1000000000000001e+00 0.0000000000000000e+00 0.0000000000000000e+00
2.2000000000000002e+00 0.0000000000000000e+00 0.0000000000000000e+00
2.3000000000000003e+00 0.0000000000000000e+00 0.0000000000000000e+00
2.4000000000000004e+00 0.0000000000000000e+00 0.0000000000000000e+00
2.5000000000000000e+00 0.0000000000000000e+00 0.0000000000000000e+00
2.6000000000000001e+00 0.0000000000000000e+00 0.0000000000000000e+00
2.7000000000000002e+00 0.0000000000000000e+00 0.0000000000000000e+00
2.8000000000000003e+00 0.0000000000000000e+00 0.0000000000000000e+00
2.9000000000000004e+00 0.0000000000000000e+00 0.0000000000000000e+00
3.0000000000000000e+00 0.0000000000000000e+00 0.0000000000000000e+00
3.1000000000000001e+00 0.0000000000000000e+00 0.0000000000000000e+00
3.2000000000000002e+00 0.0000000000000000e+00 0.0000000000000000e+00
3.3000000000000003e+00 0.0000000000000000e+00 0.0000000000000000e+00
3.4000000000000004e+00 0.0000000000000000e+00 0.0000000000000000e+00
3.5000000000000000e+00 0.0000000000000000e+00 0.0000000000000000e+00
3.6000000000000001e+00 0.0000000000000000e+00 0.0000000000000000e+00
3.7000000000000002e+00 0.0000000000000000e+00 0.0000000000000000e+00
3.8000000000000003e+00 0.0000000000000000e+00 0.0000000000000000e+00
3.9000000000000004e+00 0.0000000000000000e+00 0.0000000000000000e+00
4.0000000000000000e+00 0.0000000000000000e+00 0.0000000000000000e+00
4.1000000000000005e+00 0.0000000000000000e+00 0.0000000000000000e+00
4.2000000000000002e+00 0.0000000000000000e+00 0.0000000000000000e+00
4.2999999999999998e+00 0.0000000000000000e+00 0.0000000000000000e+00
4.4000000000000004e+00 0.0000000000000000e+00 0.0000000000000000e+00
4.5000000000000000e+00 0.0000000000000000e+00 0.0000000000000000e+00
4.6000000000000005e+00 0.0000000000000000e+00 0.0000000000000000e+00
4.7000000000000002e+00 0.0000000000000000e+00 0.0000000000000000e+00
4.8000000000000007e+00 0.0000000000000000e+00 0.0000000000000000e+00
4.9000000000000004e+00 0.0000000000000000e+00 0.0000000000000000e+00
5.0000000000000000e+00 0.0000000000000000e+00 0.0000000000000000e+00
5.1000000000000005e+00 0.0000000000000000e+00 0.0000000000000000e+00
5.2000000000000002e+00 0.0000000000000000e+00 0.0000000000000000e+00
5.3000000000000007e+00 0.0000000000000000e+00 0.0000000000000000e+00
5.4000000000000004e+00 0.0000000000000000e+00 0.0000000000000000e+00
5.5000000000000000e+00 0.0000000000000000e+00 0.0000000000000000e+00
5.6000000000000005e+00 0.0000000000000000e+00 0.0000000000000000e+00
5.7000000000000002e+00 0.0000000000000000e+00 0.0000000000000000e+00
5.8000000000000007e+00 0.0000000000000000e+00 0.0000000000000000e+00
5.9000000000000004e+00 0.0000000000000000e+00 0.0000000000000000e+00
6.0000000000000000e+00 0.0000000000000000e+00 0.0000000000000000e+00
6.1000000000000005e+00 0.0000000000000000e+00 0.0000000000000000e+00
6.2000000000000002e+00 0.0000000000000000e+00 0.0000000000000000e+00
6.3000000000000007e+00 0.0000000000000000e+00 0.0000000000000000e+00
6.4000000000000004e+00 0.0000000000000000e+00 0.0000000000000000e+00
6.5000000000000000e+00 0.0000000000000000e+00 0.0000000000000000e+00
6.6000000000000005e+00 0.0000000000000000e+00 0.0000000000000000e+00
6.7000000000000002e+00 0.0000000000000000e+00 0.0000000000000000e+00
6.8000000000000007e+00 0.0000000000000000e+00 0.0000000000000000e+00
6.9000000000000004e+00 0.0000000000000000e+00 0.0000000000000000e+00
7.0000000000000000e+00 0.0000000000000000e+00 0.0000000000000000e+00
7.1000000000000005e+00 0.0000000000000000e+00 0.0000000000000000e+00
7.2000000000000002e+00 0.0000000000000000e+00 0.0000000000000000e+00
7.3000000000000007e+00 0.0000000000000000e+00 0.0000000000000000e+00
7.4000000000000004e+00 0.0000000000000000e+00 0.0000000000000000e+00
7.5000000000000000e+00 0.0000000000000000e+00 0.0000000000000000e+00
7.6000000000000005e+00 0.0000000000000000e+00 0.0000000000000000e+00
7.7000000000000002e+00 0.0000000000000000e+00 0.0000000000000000e+00
7.8000000000000007e+00 0.0000000000000000e+00 0.0000000000000000e+00
7.9000000000000004e+00 0.0000000000000000e+00 0.0000000000000000e+00
8.0000000000000000e+00 0.0000000000000000e+00 0.0000000000000000e+00
8.0999999999999996e+00 0.0000000000000000e+00 0.0000000000000000e+00
8.2000000000000011e+00 0.0000000000000000e+00 0.0000000000000000e+00
8.3000000000000007e+00 0.0000000000000000e+00 0.0000000000000000e+00
8.4000000000000004e+00 0.0000000000000000e+00 0.0000000000000000e+00
8.5000000000000000e+00 0.0000000000000000e+00 0.0000000000000000e+00
8.5999999999999996e+00 0.0000000000000000e+00 0.0000000000000000e+00
8.7000000000000011e+00 0.0000000000000000e+00 0.0000000000000000e+00
8.8000000000000007e+00 0.0000000000000000e+00 0.0000000000000000e+00
8.9000000000000004e+00 0.0000000000000000e+00 0.0000000000000000e+00
9.0000000000000000e+00 0.0000000000000000e+00 0.0000000000000000e+00
9.0999999999999996e+00 0.0000000000000000e+00 0.0000000000000000e+00
9.2000000000000011e+00 0.0000000000000000e+00 0.0000000000000000e+00
9.3000000000000007e+00 0.0000000000000000e+00 0.0000000000000000e+00
9.4000000000000004e+00 0.0000000000000000e+00 0.0000000000000000e+00
9.5000000000000000e+00 0.0000000000000000e+00 0.0000000000000000e+00
9.6000000000000014e+00 0.0000000000000000e+00 0.0000000000000000e+00
9.7000000000000011e+00 0.0000000000000000e+00 0.0000000000000000e+00
9.8000000000000007e+00 0.0000000000000000e+00 0.0000000000000000e+00
9.9000000000000004e+00 0.0000000000000000e+00 0.0000000000000000e+00
1.0000000000000000e+01 0.0000000000000000e+00 0.0000000000000000e+00

POINT_DATA 101

VECTORS velocity float
2.5578883426999579e+00 0.0000000000000000e+00 0.0000000000000000e+00
2.5562744672453031e+00 0.0000000000000000e+00 0.0000000000000000e+00
2.5547538052256407e+00 0.0000000000000000e+00 0.0000000000000000e+00
2.5532723745626931e+00 0.0000000000000000e+00 0.0000000000000000e+00
2.5518119269489361e+00 0.0000000000000000e+00 0.0000000000000000e+00
2.5503681655338202e+00 0.0000000000000000e+00 0.0000000000000000e+00
2.5489417566578676e+00 0.0000000000000000e+00 0.0000000000000000e+00
2.5475308052724452e+00 0.0000000000000000e+00 0.0000000000000000e+00
2.5461317707760367e+00 0.0000000000000000e+00 0.0000000000000000e+00
2.5447442450344235e+00 0.0000000000000000e+00 0.0000000000000000e+00
2.5433696116014413e+00 0.0000000000000000e+00 0.0000000000000000e+00
2.5420089152501246e+00 0.0000000000000000e+00 0.0000000000000000e+00
2.5406630843262152e+00 0.0000000000000000e+00 0.0000000000000000e+00
2.5393339749805843e+00 0.0000000000000000e+00 0.0000000000000000e+00
2.5380219115809735e+00 0.0000000000000000e+00 0.0000000000000000e+00
2.5367258703959332e+00 0.0000000000000000e+00 0.0000000000000000e+00
2.5354436727627347e+00 0.0000000000000000e+00 0.0000000000000000e+00
2.5341737154343567e+00 0.0000000000000000e+00 0.0000000000000000e+00
2.5329180142274463e+00 0.0000000000000000e+00 0.0000000000000000e+00
2.5316781107418649e+00 0.0000000000000000e+00 0.0000000000000000e+00
2.5304535892981539e+00 0.0000000000000000e+00 0.0000000000000000e+00
2.5292437588674868e+00 0.0000000000000000e+00 0.0000000000000000e+00
2.5280483047916746e+00 0.0000000000000000e+00 0.0000000000000000e+00
2.5268673592682140e+00 0.0000000000000000e+00 0.0000000000000000e+00
2.5257040012585237e+00 0.0000000000000000e+00 0.0000000000000000e+00
2.5245573365195253e+00 0.0000000000000000e+00 0.0000000000000000e+00
2.5234239203253748e+00 0.0000000000000000e+00 0.0000000000000000e+00
2.5223045307087393e+00 0.0000000000000000e+00 0.0000000000000000e+00
2.5211999277832717e+00 0.0000000000000000e+00 0.0000000000000000e+00
2.5201099697270624e+00 0.0000000000000000e+00 0.0000000000000000e+00
2.5190344895037571e+00 0.0000000000000000e+00 0.0000000000000000e+00
2.5179737240799596e+00 0.0000000000000000e+00 0.0000000000000000e+00
2.5169282225573939e+00 0.0000000000000000e+00 0.0000000000000000e+00
2.5158986098406024e+00 0.0000000000000000e+00 0.0000000000000000e+00
2.5148846580002746e+00 0.0000000000000000e+00 0.0000000000000000e+00
2.5138860179083262e+00 0.0000000000000000e+00 0.0000000000000000e+00
2.5129025869067751e+00 0.0000000000000000e+00 0.0000000000000000e+00
2.5119342787834040e+00 0.0000000000000000e+00 0.0000000000000000e+00
2.5109812272129761e+00 0.0000000000000000e+00 0.0000000000000000e+00
2.5100430075115283e+00 0.0000000000000000e+00 0.0000000000000000e+00
2.5091189818613300e+00 0.0000000000000000e+00 0.0000000000000000e+00
2.5082095734023548e+00 0.0000000000000000e+00 0.0000000000000000e+00
2.5073150137815912e+00 0.0000000000000000e+00 0.0000000000000000e+00
2.5064353725418300e+00 0.0000000000000000e+00 0.0000000000000000e+00
2.5055706744592530e+00 0.0000000000000000e+00 0.0000000000000000e+00
2.5047209319838633e+00 0.0000000000000000e+00 0.0000000000000000e+00
2.5038861538247956e+00 0.0000000000000000e+00 0.0000000000000000e+00
2.5030663476768855e+00 0.0000000000000000e+00 0.0000000000000000e+00
2.5022615210579886e+00 0.0000000000000000e+00 0.0000000000000000e+00
2.5014716815937170e+00 0.0000000000000000e+00 0.0000000000000000e+00
2.5006968364290025e+00 0.0000000000000000e+00 0.0000000000000000e+00
2.4999369928402602e+00 0.0000000000000000e+00 0.0000000000000000e+00
2.4991921578234013e+00 0.0000000000000000e+00 0.0000000000000000e+00
2.4984623381562812e+00 0.0000000000000000e+00 0.0000000000000000e+00
2.4977475407000727e+00 0.0000000000000000e+00 0.0000000000000000e+00
2.4970477719924986e+00 0.0000000000000000e+00 0.0000000000000000e+00
2.4963630382497990e+00 0.0000000000000000e+00 0.0000000000000000e+00
2.4956933459662252e+00 0.0000000000000000e+00 0.0000000000000000e+00
2.4950387016874815e+00 0.0000000000000000e+00 0.0000000000000000e+00
2.4943991114543569e+00 0.0000000000000000e+00 0.0000000000000000e+00
2.4937745810772771e+00 0.0000000000000000e+00 0.0000000000000000e+00
2.4931651165339299e+00 0.0000000000000000e+00 0.0000000000000000e+00
2.4925707236859518e+00 0.0000000000000000e+00 0.0000000000000000e+00
2.4919914079645720e+00 0.0000000000000000e+00 0.0000000000000000e+00
2.4914271748040404e+00 0.0000000000000000e+00 0.0000000000000000e+00
2.4908780295675337e+00 0.0000000000000000e+00 0.0000000000000000e+00
2.4903439774514586e+00 0.0000000000000000e+00 0.0000000000000000e+00
2.4898250236094013e+00 0.0000000000000000e+00 0.0000000000000000e+00
2.4893211730432871e+00 0.0000000000000000e+00 0.0000000000000000e+00
2.4888324305669314e+00 0.0000000000000000e+00 0.0000000000000000e+00
2.4883588008531028e+00 0.0000000000000000e+00 0.0000000000000000e+00
2.4879002885050290e+00 0.0000000000000000e+00 0.0000000000000000e+00
2.4874568979971805e+00 0.0000000000000000e+00 0.0000000000000000e+00
2.4870286337204783e+00 0.0000000000000000e+00 0.0000000000000000e+00
2.4866154999444317e+00 0.0000000000000000e+00 0.0000000000000000e+00
2.4862175006989942e+00 0.0000000000000000e+00 0.0000000000000000e+00
2.4858346400503053e+00 0.0000000000000000e+00 0.0000000000000000e+00
2.4854669216374345e+00 0.0000000000000000e+00 0.0000000000000000e+00
2.4851143493428807e+00 0.0000000000000000e+00 0.0000000000000000e+00
2.4847769268593596e+00 0.0000000000000000e+00 0.0000000000000000e+00
2.4844546574822362e+00 0.0000000000000000e+00 0.0000000000000000e+00
2.4841475446031303e+00 0.0000000000000000e+00 0.0000000000000000e+00
2.4838555914162845e+00 0.0000000000000000e+00 0.0000000000000000e+00
2.4835788012312454e+00 0.0000000000000000e+00 0.0000000000000000e+00
2.4833171764764632e+00 0.0000000000000000e+00 0.0000000000000000e+00
2.4830707201572841e+00 0.0000000000000000e+00 0.0000000000000000e+00
2.4828394353739771e+00 0.0000000000000000e+00 0.0000000000000000e+00
2.4826233241819251e+00 0.0000000000000000e+00 0.0000000000000000e+00
2.4824223886096317e+00 0.0000000000000000e+00 0.0000000000000000e+00
2.4822366323661278e+00 0.0000000000000000e+00 0.0000000000000000e+00
2.4820660559675414e+00 0.0000000000000000e+00 0.0000000000000000e+00
2.4819106679908178e+00 0.0000000000000000e+00 0.0000000000000000e+00
2.4817704529094380e+00 0.0000000000000000e+00 0.0000000000000000e+00
2.4816454544151236e+00 0.0000000000000000e+00 0.0000000000000000e+00
2.4815355720852010e+00 0.0000000000000000e+00 0.0000000000000000e+00
2.4814410577943633e+00 0.0000000000000000e+00 0.0000000000000000e+00
2.4813612997924510e+00 0.0000000000000000e+00 0.0000000000000000e+00
2.4812977975762598e+00 0.0000000000000000e+00 0.0000000000000000e+00
2.4812469024496773e+00 0.0000000000000000e+00 0.0000000000000000e+00
2.4812174815066910e+00 0.0000000000000000e+00 0.0000000000000000e+00
2.4811880605637051e+00 0.0000000000000000e+00 0.0000000000000000e+00


SCALARS pressure float
LOOKUP_TABLE default
3.4322059405511951e-01
3.2400922663601073e-01
3.0479785921690195e-01
2.8592779089039216e-01
2.6750814552017960e-01
2.4957427568126364e-01
2.3212999109284874e-01
2.1516929093266562e-01
1.9869533220050825e-01
1.8271284782924058e-01
1.6721562768336143e-01
1.5219404653775551e-01
1.3764048259068726e-01
1.2354708840571275e-01
1.0990309836499955e-01
9.6703057223103489e-02
8.3944510952078707e-02
7.1628601893136135e-02
5.9754498668823347e-02
4.8309609347734803e-02
3.7284077657260675e-02
2.6673907973279811e-02
1.6475352835292827e-02
6.6831148214666330e-03
-2.7093661871385529e-03
-1.1717081779295549e-02
-2.0340563161471672e-02
-2.8575907586568777e-02
-3.6432651768256351e-02
-4.3918220725038509e-02
-5.1037815237896154e-02
-5.7797011440594716e-02
-6.4202530402927699e-02
-7.0261904249139528e-02
-7.5982699943680135e-02
-8.1369896967884742e-02
-8.6428506922484313e-02
-9.1164273032384488e-02
-9.5582848651477301e-02
-9.9690629161961072e-02
-1.0349206571644637e-01
-1.0699104004969645e-01
-1.1019484964177338e-01
-1.1310979495248578e-01
-1.1574191439567856e-01
-1.1809718398029753e-01
-1.2018157207448651e-01
-1.2200105361215163e-01
-1.2356161516867220e-01
-1.2486925610218171e-01
-1.2592998881666129e-01
-1.2674983648483595e-01
-1.2733483530373366e-01
-1.2769103245812635e-01
-1.2782448628935211e-01
-1.2774126707666630e-01
-1.2744745557070422e-01
-1.2694914317145450e-01
-1.2625243312958018e-01
-1.2536343942432626e-01
-1.2428828513222848e-01
-1.2303310327849344e-01
-1.2160403784630039e-01
-1.2000724249181419e-01
-1.1824887945304995e-01
-1.1633512079547155e-01
-1.1427214780168238e-01
-1.1206615057841729e-01
-1.0972332824406665e-01
-1.0724988833123301e-01
-1.0465204657353018e-01
-1.0193602687013456e-01
-9.9108061354028096e-02
-9.6174389969333404e-02
-9.3141260335831977e-02
-9.0014927432948436e-02
-8.6801653057718947e-02
-8.3507706411525565e-02
-8.0139362590169336e-02
-7.6702904595607677e-02
-7.3204621338562273e-02
-6.9650807458375139e-02
-6.6047764287480673e-02
-6.2401798713593991e-02
-5.8719223411187169e-02
-5.5006354520519496e-02
-5.1269516662206374e-02
-4.7515039382539516e-02
-4.3749254271842133e-02
-3.9978498014434767e-02
-3.6209117414373201e-02
-3.2447451598250743e-02
-2.8699875380247850e-02
-2.4972680439389845e-02
-2.1272377229497819e-02
-1.7604957334038045e-02
-1.3977687559529646e-02
-1.0394739731274553e-02
-6.8678196258876324e-03
-3.3903787181825398e-03
0.0000000000000000e+00


SCALARS diameter float
LOOKUP_TABLE default
1.0000323655030772e+00
1.0000315553927652e+00
1.0000297249955425e+00
1.0000279685344882e+00
1.0000266029424860e+00
1.0000253338248266e+00
1.0000223567816144e+00
1.0000186555791863e+00
1.0000164305560104e+00
1.0000154046374554e+00
1.0000148536207223e+00
1.0000143955723850e+00
1.0000138817908797e+00
1.0000124286146415e+00
1.0000100391472533e+00
1.0000076138554945e+00
1.0000058803173479e+00
1.0000059409315847e+00
1.0000056343213137e+00
1.0000045122653427e+00
1.0000032853180323e+00
1.0000024673179144e+00
1.0000019696363718e+00
1.0000018549386565e+00
1.0000007113851646e+00
9.9999790287729595e-01
9.9999723154561770e-01
9.9999660708976357e-01
9.9999599623125723e-01
9.9999543425244930e-01
9.9999527167289393e-01
9.9999512075602015e-01
9.9999493702153519e-01
9.9999423725393399e-01
9.9999336767577918e-01
9.9999251170695191e-01
9.9999166951952589e-01
9.9999084124747994e-01
9.9999002683684468e-01
9.9998926625890294e-01
9.9998916062023702e-01
9.9998906612384530e-01
9.9998898409767156e-01
9.9998891449910399e-01
9.9998885722294517e-01
9.9998881217113167e-01
9.9998877920168228e-01
9.9998875820554622e-01
9.9998874909177915e-01
9.9998875143364785e-01
9.9998876529887681e-01
9.9998879029698018e-01
9.9998882635110720e-01
9.9998887332765363e-01
9.9998893094627872e-01
9.9998899903180016e-01
9.9998907761835998e-01
9.9998916648220992e-01
9.9998926519595088e-01
9.9998937367780683e-01
9.9998949186721020e-01
9.9998961943938525e-01
9.9998975612597918e-01
9.9998990193251636e-01
9.9999005668584007e-01
9.9999022015321859e-01
9.9999039219888108e-01
9.9999057259902013e-01
9.9999076114433860e-01
9.9999095768054369e-01
9.9999116202740723e-01
9.9999137400403004e-01
9.9999159340743493e-01
9.9999182009857812e-01
9.9999205383414591e-01
9.9999229448513216e-01
9.9999254187174225e-01
9.9999279571827182e-01
9.9999305603012112e-01
9.9999332217567916e-01
9.9999359445111413e-01
9.9999387237272919e-01
9.9999415596250762e-01
9.9999444481482702e-01
9.9999473892420732e-01
9.9999503813055590e-01
9.9999534193863970e-01
9.9999565069027652e-01
9.9999596437388716e-01
9.9999628217537329e-01
9.9999660387771983e-01
9.9999692853003697e-01
9.9999725777108550e-01
9.9999759006946365e-01
9.9999792585310054e-01
9.9999826472857700e-01
9.9999860656838935e-01
9.9999895116042592e-01
9.9999929833029377e-01
9.9999964785669926e-01
1.0000000000489848e+00


SCALARS iters float
LOOKUP_TABLE default
6.0000000000000000e+00
6.0000000000000000e+00
6.0000000000000000e+00
6.0000000000000000e+00
6.0000000000000000e+00
6.0000000000000000e+00
6.0000000000000000e+00
6.0000000000000000e+00
6.0000000000000000e+00
6.0000000000000000e+00
6.0000000000000000e+00
6.0000000000000000e+00
6.0000000000000000e+00
6.0000000000000000e+00
6.0000000000000000e+00
6.0000000000000000e+00
6.0000000000000000e+00
6.0000000000000000e+00
6.0000000000000000e+00
6.0000000000000000e+00
6.0000000000000000e+00
6.0000000000000000e+00
6.0000000000000000e+00
6.0000000000000000e+00
6.0000000000000000e+00
6.0000000000000000e+00
6.0000000000000000e+00
6.0000000000000000e+00
6.0000000000000000e+00
6.0000000000000000e+00
6.0000000000000000e+00
6.0000000000000000e+00
6.0000000000000000e+00
6.0000000000000000e+00
6.0000000000000000e+00
6.0000000000000000e+00
6.0000000000000000e+00
6.0000000000000000e+00
6.0000000000000000e+00
6.0000000000000000e+00
6.0000000000000000e+00
6.0000000000000000e+00
6.0000000000000000e+00
6.0000000000000000e+00
6.0000000000000000e+00
6.0000000000000000e+00
6.0000000000000000e+00
6.0000000000000000e+00
6.0000000000000000e+00
6.0000000000000000e+00
6.0000000000000000e+00
6.0000000000000000e+00
6.0000000000000000e+00
6.0000000000000000e+00
6.0000000000000000e+00
6.0000000000000000e+00
6.0000000000000000e+00
6.0000000000000000e+00
6.0000000000000000e+00
6.0000000000000000e+00
6.0000000000000000e+00
6.0000000000000000e+00
6.0000000000000000e+00
6.0000000000000000e+00
6.0000000000000000e+00
6.0000000000000000e+00
6.0000000000000000e+00
6.0000000000000000e+00
6.0000000000000000e+00
6.0000000000000000e+00
6.0000000000000000e+00
6.0000000000000000e+00
6.0000000000000000e+00
6.0000000000000000e+00
6.0000000000000000e+00
6.0000000000000000e+00
6.0000000000000000e+00
6.0000000000000000e+00
6.0000000000000000e+00
6.0000000000000000e+00
6.0000000000000000e+00
6.0000000000000000e+00
6.0000000000000000e+00
6.0000000000000000e+00
6.0000000000000000e+00
6.0000000000000000e+00
6.0000000000000000e+00
6.0000000000000000e+00
6.0000000000000000e+00
6.0000000000000000e+00
6.0000000000000000e+00
6.0000000000000000e+00
6.0000000000000000e+00
6.0000000000000000e+00
6.0000000000000000e+00
6.0000000000000000e+00
6.0000000000000000e+00
6.0000000000000000e+00
6.0000000000000000e+00
6.0000000000000000e+00
6.0000000000000000e+00


