# vtk DataFile Version 2.0

ASCII

DATASET UNSTRUCTURED_GRID

POINTS 101 float

0.0000000000000000e+00 0.0000000000000000e+00 0.0000000000000000e+00
1.0000000000000001e-01 0.0000000000000000e+00 0.0000000000000000e+00
2.0000000000000001e-01 0.0000000000000000e+00 0.0000000000000000e+00
3.0000000000000004e-01 0.0000000000000000e+00 0.0000000000000000e+00
4.0000000000000002e-01 0.0000000000000000e+00 0.0000000000000000e+00
5.0000000000000000e-01 0.0000000000000000e+00 0.0000000000000000e+00
6.0000000000000009e-01 0.0000000000000000e+00 0.0000000000000000e+00
7.0000000000000007e-01 0.0000000000000000e+00 0.0000000000000000e+00
8.0000000000000004e-01 0.0000000000000000e+00 0.0000000000000000e+00
9.0000000000000002e-01 0.0000000000000000e+00 0.0000000000000000e+00
1.0000000000000000e+00 0.0000000000000000e+00 0.0000000000000000e+00
1.1000000000000001e+00 0.0000000000000000e+00 0.0000000000000000e+00
1.2000000000000002e+00 0.0000000000000000e+00 0.0000000000000000e+00
1.3000000000000000e+00 0.0000000000000000e+00 0.0000000000000000e+00
1.4000000000000001e+00 0.0000000000000000e+00 0.0000000000000000e+00
1.5000000000000000e+00 0.0000000000000000e+00 0.0000000000000000e+00
1.6000000000000001e+00 0.0000000000000000e+00 0.0000000000000000e+00
1.7000000000000002e+00 0.0000000000000000e+00 0.0000000000000000e+00
1.8000000000000000e+00 0.0000000000000000e+00 0.0000000000000000e+00
1.9000000000000001e+00 0.0000000000000000e+00 0.0000000000000000e+00
2.0000000000000000e+00 0.0000000000000000e+00 0.0000000000000000e+00
2.1000000000000001e+00 0.0000000000000000e+00 0.0000000000000000e+00
2.2000000000000002e+00 0.0000000000000000e+00 0.0000000000000000e+00
2.3000000000000003e+00 0.0000000000000000e+00 0.0000000000000000e+00
2.4000000000000004e+00 0.0000000000000000e+00 0.0000000000000000e+00
2.5000000000000000e+00 0.0000000000000000e+00 0.0000000000000000e+00
2.6000000000000001e+00 0.0000000000000000e+00 0.0000000000000000e+00
2.7000000000000002e+00 0.0000000000000000e+00 0.0000000000000000e+00
2.8000000000000003e+00 0.0000000000000000e+00 0.0000000000000000e+00
2.9000000000000004e+00 0.0000000000000000e+00 0.0000000000000000e+00
3.0000000000000000e+00 0.0000000000000000e+00 0.0000000000000000e+00
3.1000000000000001e+00 0.0000000000000000e+00 0.0000000000000000e+00
3.2000000000000002e+00 0.0000000000000000e+00 0.0000000000000000e+00
3.3000000000000003e+00 0.0000000000000000e+00 0.0000000000000000e+00
3.4000000000000004e+00 0.0000000000000000e+00 0.0000000000000000e+00
3.5000000000000000e+00 0.0000000000000000e+00 0.0000000000000000e+00
3.6000000000000001e+00 0.0000000000000000e+00 0.0000000000000000e+00
3.7000000000000002e+00 0.0000000000000000e+00 0.0000000000000000e+00
3.8000000000000003e+00 0.0000000000000000e+00 0.0000000000000000e+00
3.9000000000000004e+00 0.0000000000000000e+00 0.0000000000000000e+00
4.0000000000000000e+00 0.0000000000000000e+00 0.0000000000000000e+00
4.1000000000000005e+00 0.0000000000000000e+00 0.0000000000000000e+00
4.2000000000000002e+00 0.0000000000000000e+00 0.0000000000000000e+00
4.2999999999999998e+00 0.0000000000000000e+00 0.0000000000000000e+00
4.4000000000000004e+00 0.0000000000000000e+00 0.0000000000000000e+00
4.5000000000000000e+00 0.0000000000000000e+00 0.0000000000000000e+00
4.6000000000000005e+00 0.0000000000000000e+00 0.0000000000000000e+00
4.7000000000000002e+00 0.0000000000000000e+00 0.0000000000000000e+00
4.8000000000000007e+00 0.0000000000000000e+00 0.0000000000000000e+00
4.9000000000000004e+00 0.0000000000000000e+00 0.0000000000000000e+00
5.0000000000000000e+00 0.0000000000000000e+00 0.0000000000000000e+00
5.1000000000000005e+00 0.0000000000000000e+00 0.0000000000000000e+00
5.2000000000000002e+00 0.0000000000000000e+00 0.0000000000000000e+00
5.3000000000000007e+00 0.0000000000000000e+00 0.0000000000000000e+00
5.4000000000000004e+00 0.0000000000000000e+00 0.0000000000000000e+00
5.5000000000000000e+00 0.0000000000000000e+00 0.0000000000000000e+00
5.6000000000000005e+00 0.0000000000000000e+00 0.0000000000000000e+00
5.7000000000000002e+00 0.0000000000000000e+00 0.0000000000000000e+00
5.8000000000000007e+00 0.0000000000000000e+00 0.0000000000000000e+00
5.9000000000000004e+00 0.0000000000000000e+00 0.0000000000000000e+00
6.0000000000000000e+00 0.0000000000000000e+00 0.0000000000000000e+00
6.1000000000000005e+00 0.0000000000000000e+00 0.0000000000000000e+00
6.2000000000000002e+00 0.0000000000000000e+00 0.0000000000000000e+00
6.3000000000000007e+00 0.0000000000000000e+00 0.0000000000000000e+00
6.4000000000000004e+00 0.0000000000000000e+00 0.0000000000000000e+00
6.5000000000000000e+00 0.0000000000000000e+00 0.0000000000000000e+00
6.6000000000000005e+00 0.0000000000000000e+00 0.0000000000000000e+00
6.7000000000000002e+00 0.0000000000000000e+00 0.0000000000000000e+00
6.8000000000000007e+00 0.0000000000000000e+00 0.0000000000000000e+00
6.9000000000000004e+00 0.0000000000000000e+00 0.0000000000000000e+00
7.0000000000000000e+00 0.0000000000000000e+00 0.0000000000000000e+00
7.1000000000000005e+00 0.0000000000000000e+00 0.0000000000000000e+00
7.2000000000000002e+00 0.0000000000000000e+00 0.0000000000000000e+00
7.3000000000000007e+00 0.0000000000000000e+00 0.0000000000000000e+00
7.4000000000000004e+00 0.0000000000000000e+00 0.0000000000000000e+00
7.5000000000000000e+00 0.0000000000000000e+00 0.0000000000000000e+00
7.6000000000000005e+00 0.0000000000000000e+00 0.0000000000000000e+00
7.7000000000000002e+00 0.0000000000000000e+00 0.0000000000000000e+00
7.8000000000000007e+00 0.0000000000000000e+00 0.0000000000000000e+00
7.9000000000000004e+00 0.0000000000000000e+00 0.0000000000000000e+00
8.0000000000000000e+00 0.0000000000000000e+00 0.0000000000000000e+00
8.0999999999999996e+00 0.0000000000000000e+00 0.0000000000000000e+00
8.2000000000000011e+00 0.0000000000000000e+00 0.0000000000000000e+00
8.3000000000000007e+00 0.0000000000000000e+00 0.0000000000000000e+00
8.4000000000000004e+00 0.0000000000000000e+00 0.0000000000000000e+00
8.5000000000000000e+00 0.0000000000000000e+00 0.0000000000000000e+00
8.5999999999999996e+00 0.0000000000000000e+00 0.0000000000000000e+00
8.7000000000000011e+00 0.0000000000000000e+00 0.0000000000000000e+00
8.8000000000000007e+00 0.0000000000000000e+00 0.0000000000000000e+00
8.9000000000000004e+00 0.0000000000000000e+00 0.0000000000000000e+00
9.0000000000000000e+00 0.0000000000000000e+00 0.0000000000000000e+00
9.0999999999999996e+00 0.0000000000000000e+00 0.0000000000000000e+00
9.2000000000000011e+00 0.0000000000000000e+00 0.0000000000000000e+00
9.3000000000000007e+00 0.0000000000000000e+00 0.0000000000000000e+00
9.4000000000000004e+00 0.0000000000000000e+00 0.0000000000000000e+00
9.5000000000000000e+00 0.0000000000000000e+00 0.0000000000000000e+00
9.6000000000000014e+00 0.0000000000000000e+00 0.0000000000000000e+00
9.7000000000000011e+00 0.0000000000000000e+00 0.0000000000000000e+00
9.8000000000000007e+00 0.0000000000000000e+00 0.0000000000000000e+00
9.9000000000000004e+00 0.0000000000000000e+00 0.0000000000000000e+00
1.0000000000000000e+01 0.0000000000000000e+00 0.0000000000000000e+00

POINT_DATA 101

VECTORS velocity float
4.5858303496319266e+00 0.0000000000000000e+00 0.0000000000000000e+00
4.5855953348384553e+00 0.0000000000000000e+00 0.0000000000000000e+00
4.5853580423588429e+00 0.0000000000000000e+00 0.0000000000000000e+00
4.5851183275753318e+00 0.0000000000000000e+00 0.0000000000000000e+00
4.5848777681295765e+00 0.0000000000000000e+00 0.0000000000000000e+00
4.5846389732021597e+00 0.0000000000000000e+00 0.0000000000000000e+00
4.5844049416896819e+00 0.0000000000000000e+00 0.0000000000000000e+00
4.5841765428900301e+00 0.0000000000000000e+00 0.0000000000000000e+00
4.5839505943936514e+00 0.0000000000000000e+00 0.0000000000000000e+00
4.5837248185854449e+00 0.0000000000000000e+00 0.0000000000000000e+00
4.5835003045163258e+00 0.0000000000000000e+00 0.0000000000000000e+00
4.5832779058422703e+00 0.0000000000000000e+00 0.0000000000000000e+00
4.5830585662898011e+00 0.0000000000000000e+00 0.0000000000000000e+00
4.5828443600609061e+00 0.0000000000000000e+00 0.0000000000000000e+00
4.5826354940989829e+00 0.0000000000000000e+00 0.0000000000000000e+00
4.5824313220729520e+00 0.0000000000000000e+00 0.0000000000000000e+00
4.5822287566224036e+00 0.0000000000000000e+00 0.0000000000000000e+00
4.5820255450127494e+00 0.0000000000000000e+00 0.0000000000000000e+00
4.5818241466367695e+00 0.0000000000000000e+00 0.0000000000000000e+00
4.5816259005481736e+00 0.0000000000000000e+00 0.0000000000000000e+00
4.5814306615123606e+00 0.0000000000000000e+00 0.0000000000000000e+00
4.5812386771175273e+00 0.0000000000000000e+00 0.0000000000000000e+00
4.5810506065554852e+00 0.0000000000000000e+00 0.0000000000000000e+00
4.5808668217947375e+00 0.0000000000000000e+00 0.0000000000000000e+00
4.5806870728127711e+00 0.0000000000000000e+00 0.0000000000000000e+00
4.5805099291923250e+00 0.0000000000000000e+00 0.0000000000000000e+00
4.5803349234376975e+00 0.0000000000000000e+00 0.0000000000000000e+00
4.5801625643047368e+00 0.0000000000000000e+00 0.0000000000000000e+00
4.5799931428799043e+00 0.0000000000000000e+00 0.0000000000000000e+00
4.5798261509449620e+00 0.0000000000000000e+00 0.0000000000000000e+00
4.5796612503858194e+00 0.0000000000000000e+00 0.0000000000000000e+00
4.5794988766607911e+00 0.0000000000000000e+00 0.0000000000000000e+00
4.5793396237910242e+00 0.0000000000000000e+00 0.0000000000000000e+00
4.5791841511068885e+00 0.0000000000000000e+00 0.0000000000000000e+00
4.5790322063204663e+00 0.0000000000000000e+00 0.0000000000000000e+00
4.5788834761974986e+00 0.0000000000000000e+00 0.0000000000000000e+00
4.5787378589718335e+00 0.0000000000000000e+00 0.0000000000000000e+00
4.5785952551410052e+00 0.0000000000000000e+00 0.0000000000000000e+00
4.5784557395034975e+00 0.0000000000000000e+00 0.0000000000000000e+00
4.5783189697445659e+00 0.0000000000000000e+00 0.0000000000000000e+00
4.5781846778968873e+00 0.0000000000000000e+00 0.0000000000000000e+00
4.5780531783425946e+00 0.0000000000000000e+00 0.0000000000000000e+00
4.5779245704412519e+00 0.0000000000000000e+00 0.0000000000000000e+00
4.5777989037005247e+00 0.0000000000000000e+00 0.0000000000000000e+00
4.5776762032403084e+00 0.0000000000000000e+00 0.0000000000000000e+00
4.5775564818388599e+00 0.0000000000000000e+00 0.0000000000000000e+00
4.5774397461646688e+00 0.0000000000000000e+00 0.0000000000000000e+00
4.5773259993713360e+00 0.0000000000000000e+00 0.0000000000000000e+00
4.5772152438752256e+00 0.0000000000000000e+00 0.0000000000000000e+00
4.5771074813193620e+00 0.0000000000000000e+00 0.0000000000000000e+00
4.5770027123112893e+00 0.0000000000000000e+00 0.0000000000000000e+00
4.5769009380718169e+00 0.0000000000000000e+00 0.0000000000000000e+00
4.5768021590984320e+00 0.0000000000000000e+00 0.0000000000000000e+00
4.5767063756604509e+00 0.0000000000000000e+00 0.0000000000000000e+00
4.5766135885429522e+00 0.0000000000000000e+00 0.0000000000000000e+00
4.5765237985619196e+00 0.0000000000000000e+00 0.0000000000000000e+00
4.5764370058695674e+00 0.0000000000000000e+00 0.0000000000000000e+00
4.5763532109033340e+00 0.0000000000000000e+00 0.0000000000000000e+00
4.5762724146501146e+00 0.0000000000000000e+00 0.0000000000000000e+00
4.5761946174965376e+00 0.0000000000000000e+00 0.0000000000000000e+00
4.5761198196588415e+00 0.0000000000000000e+00 0.0000000000000000e+00
4.5760480218046755e+00 0.0000000000000000e+00 0.0000000000000000e+00
4.5759792245083091e+00 0.0000000000000000e+00 0.0000000000000000e+00
4.5759134279121616e+00 0.0000000000000000e+00 0.0000000000000000e+00
4.5758506323729558e+00 0.0000000000000000e+00 0.0000000000000000e+00
4.5757908382843917e+00 0.0000000000000000e+00 0.0000000000000000e+00
4.5757340459388516e+00 0.0000000000000000e+00 0.0000000000000000e+00
4.5756802557495231e+00 0.0000000000000000e+00 0.0000000000000000e+00
4.5756294680654372e+00 0.0000000000000000e+00 0.0000000000000000e+00
4.5755816831179255e+00 0.0000000000000000e+00 0.0000000000000000e+00
4.5755369011587392e+00 0.0000000000000000e+00 0.0000000000000000e+00
4.5754951224724882e+00 0.0000000000000000e+00 0.0000000000000000e+00
4.5754563473084851e+00 0.0000000000000000e+00 0.0000000000000000e+00
4.5754205758485513e+00 0.0000000000000000e+00 0.0000000000000000e+00
4.5753878082865675e+00 0.0000000000000000e+00 0.0000000000000000e+00
4.5753580446969710e+00 0.0000000000000000e+00 0.0000000000000000e+00
4.5753312852826040e+00 0.0000000000000000e+00 0.0000000000000000e+00
4.5753075300679091e+00 0.0000000000000000e+00 0.0000000000000000e+00
4.5752867792092653e+00 0.0000000000000000e+00 0.0000000000000000e+00
4.5752690330120238e+00 0.0000000000000000e+00 0.0000000000000000e+00
4.5752542914805181e+00 0.0000000000000000e+00 0.0000000000000000e+00
4.5752425546549897e+00 0.0000000000000000e+00 0.0000000000000000e+00
4.5752338224661182e+00 0.0000000000000000e+00 0.0000000000000000e+00
4.5752280950094972e+00 0.0000000000000000e+00 0.0000000000000000e+00
4.5752253722349865e+00 0.0000000000000000e+00 0.0000000000000000e+00
4.5752256540586718e+00 0.0000000000000000e+00 0.0000000000000000e+00
4.5752289407120603e+00 0.0000000000000000e+00 0.0000000000000000e+00
4.5752352316694900e+00 0.0000000000000000e+00 0.0000000000000000e+00
4.5752445266780262e+00 0.0000000000000000e+00 0.0000000000000000e+00
4.5752568256380046e+00 0.0000000000000000e+00 0.0000000000000000e+00
4.5752721291668070e+00 0.0000000000000000e+00 0.0000000000000000e+00
4.5752904383560731e+00 0.0000000000000000e+00 0.0000000000000000e+00
4.5753117495576721e+00 0.0000000000000000e+00 0.0000000000000000e+00
4.5753360698097767e+00 0.0000000000000000e+00 0.0000000000000000e+00
4.5753633811965759e+00 0.0000000000000000e+00 0.0000000000000000e+00
4.5753937260824014e+00 0.0000000000000000e+00 0.0000000000000000e+00
4.5754269976157591e+00 0.0000000000000000e+00 0.0000000000000000e+00
4.5754634626713537e+00 0.0000000000000000e+00 0.0000000000000000e+00
4.5755024512309008e+00 0.0000000000000000e+00 0.0000000000000000e+00
4.5755456400711729e+00 0.0000000000000000e+00 0.0000000000000000e+00
4.5755888289114459e+00 0.0000000000000000e+00 0.0000000000000000e+00


SCALARS pressure float
LOOKUP_TABLE default
1.2200067475395471e+01
1.2079434876048625e+01
1.1958802276701778e+01
1.1838159620610897e+01
1.1717508207780671e+01
1.1596843332219640e+01
1.1476154817877070e+01
1.1355429963211431e+01
1.1234664058223068e+01
1.1113869304753511e+01
1.0993056287845244e+01
1.0872222086593784e+01
1.0751362968306630e+01
1.0630474661110849e+01
1.0509548236565339e+01
1.0388581615049871e+01
1.0267577008447429e+01
1.0146547149546153e+01
1.0025502871087710e+01
9.9044358464885622e+00
9.7833395076165814e+00
9.6622134723268793e+00
9.5410567168728768e+00
9.4198664775917429e+00
9.2986408713056647e+00
9.1773805250925857e+00
9.0560911769691774e+00
8.9347755737052434e+00
8.8134321304867793e+00
8.6920595049752940e+00
8.5706595841329296e+00
8.4492339861258774e+00
8.3277812302118246e+00
8.2062987464412149e+00
8.0847835506532348e+00
7.9632362249456525e+00
7.8416580851968591e+00
7.7200497144478621e+00
7.5984115947568158e+00
7.4767435010930283e+00
7.3550467906610049e+00
7.2333227294892346e+00
7.1115702643281411e+00
6.9897888778360997e+00
6.8679783198772446e+00
6.7461384712399175e+00
6.6242692782025516e+00
6.5023707194728022e+00
6.3804427917984556e+00
6.2584854971008079e+00
6.1364988410041397e+00
6.0144828337082652e+00
5.8924374835681883e+00
5.7703628016388233e+00
5.6482588003220640e+00
5.5261254901970291e+00
5.4039628815250049e+00
5.2817709871789900e+00
5.1595498192797100e+00
5.0372993877661738e+00
4.9150197047378557e+00
4.7927107833294826e+00
4.6703726350543997e+00
4.5480052716224799e+00
4.4256087065316736e+00
4.3031829527166421e+00
4.1807280229502588e+00
4.0582439304318720e+00
3.9357306879939897e+00
3.8131883087337397e+00
3.6906168063057407e+00
3.5680161944080968e+00
3.4453864866584323e+00
3.3227276968455883e+00
3.2000398391092948e+00
3.0773229276466201e+00
2.9545769771821164e+00
2.8318020020818064e+00
2.7089980174014525e+00
2.5861650378284211e+00
2.4633030775147149e+00
2.3404121516960452e+00
2.2174922756535387e+00
2.0945434651596666e+00
1.9715657355928713e+00
1.8485591028385286e+00
1.7255235828315170e+00
1.6024591902494194e+00
1.4793659428479466e+00
1.3562438578911835e+00
1.2330929520422813e+00
1.1099132389552955e+00
9.8670472986500879e-01
8.6346745458667074e-01
7.4020140323502293e-01
6.1690665969896930e-01
4.9358308108179871e-01
3.7023108654661724e-01
2.4684968741798724e-01
1.2344142341111605e-01
0.0000000000000000e+00


SCALARS diameter float
LOOKUP_TABLE default
1.0011044968879312e+00
1.0010919196744343e+00
1.0010797446631401e+00
1.0010689144037950e+00
1.0010587997385350e+00
1.0010486764311843e+00
1.0010377031862354e+00
1.0010257087857013e+00
1.0010138649315019e+00
1.0010032619695368e+00
1.0009930213881855e+00
1.0009827731807615e+00
1.0009724445693873e+00
1.0009614208586481e+00
1.0009495532440136e+00
1.0009375179733875e+00
1.0009257185612699e+00
1.0009155598277775e+00
1.0009054203510166e+00
1.0008949100888405e+00
1.0008842978696921e+00
1.0008736886714160e+00
1.0008627283443430e+00
1.0008514330518248e+00
1.0008398234281277e+00
1.0008284116083759e+00
1.0008174423136946e+00
1.0008064390141205e+00
1.0007954324586574e+00
1.0007844551234168e+00
1.0007738611917267e+00
1.0007632542797826e+00
1.0007526133141131e+00
1.0007416181209059e+00
1.0007304805220687e+00
1.0007193383943951e+00
1.0007081908777646e+00
1.0006970376991664e+00
1.0006858788833932e+00
1.0006747293712850e+00
1.0006638068691744e+00
1.0006528759250757e+00
1.0006419373455189e+00
1.0006309918116665e+00
1.0006200395712945e+00
1.0006090808253261e+00
1.0005981157690058e+00
1.0005871446347396e+00
1.0005761676388383e+00
1.0005651845193722e+00
1.0005541958074724e+00
1.0005432013650357e+00
1.0005322013538482e+00
1.0005211961115796e+00
1.0005101856318559e+00
1.0004991699314851e+00
1.0004881492291575e+00
1.0004771238020649e+00
1.0004660934713827e+00
1.0004550584159435e+00
1.0004440188885593e+00
1.0004329749226084e+00
1.0004219265214258e+00
1.0004108739428204e+00
1.0003998173250683e+00
1.0003887567161791e+00
1.0003776922834917e+00
1.0003666240986446e+00
1.0003555522579728e+00
1.0003444769017209e+00
1.0003333981566649e+00
1.0003223161100505e+00
1.0003112308740723e+00
1.0003001425659872e+00
1.0002890513111173e+00
1.0002779572195188e+00
1.0002668604376634e+00
1.0002557610176208e+00
1.0002446591718213e+00
1.0002335548235375e+00
1.0002224481773700e+00
1.0002113393289491e+00
1.0002002284258209e+00
1.0001891155639879e+00
1.0001780008094827e+00
1.0001668843312623e+00
1.0001557661632283e+00
1.0001446464577042e+00
1.0001335256135295e+00
1.0001224033933651e+00
1.0001112800348089e+00
1.0001001548612500e+00
1.0000890291393785e+00
1.0000779021621640e+00
1.0000667746255532e+00
1.0000556464519537e+00
1.0000445177501092e+00
1.0000333886203421e+00
1.0000222592426062e+00
1.0000111297826619e+00
1.0000000000105800e+00


SCALARS iters float
LOOKUP_TABLE default
3.0000000000000000e+00
3.0000000000000000e+00
3.0000000000000000e+00
3.0000000000000000e+00
3.0000000000000000e+00
3.0000000000000000e+00
3.0000000000000000e+00
3.0000000000000000e+00
3.0000000000000000e+00
3.0000000000000000e+00
3.0000000000000000e+00
3.0000000000000000e+00
3.0000000000000000e+00
3.0000000000000000e+00
3.0000000000000000e+00
3.0000000000000000e+00
3.0000000000000000e+00
3.0000000000000000e+00
3.0000000000000000e+00
3.0000000000000000e+00
3.0000000000000000e+00
3.0000000000000000e+00
3.0000000000000000e+00
3.0000000000000000e+00
3.0000000000000000e+00
3.0000000000000000e+00
3.0000000000000000e+00
3.0000000000000000e+00
3.0000000000000000e+00
3.0000000000000000e+00
3.0000000000000000e+00
3.0000000000000000e+00
3.0000000000000000e+00
3.0000000000000000e+00
3.0000000000000000e+00
3.0000000000000000e+00
3.0000000000000000e+00
3.0000000000000000e+00
3.0000000000000000e+00
3.0000000000000000e+00
3.0000000000000000e+00
3.0000000000000000e+00
3.0000000000000000e+00
3.0000000000000000e+00
3.0000000000000000e+00
3.0000000000000000e+00
3.0000000000000000e+00
3.0000000000000000e+00
3.0000000000000000e+00
3.0000000000000000e+00
3.0000000000000000e+00
3.0000000000000000e+00
3.0000000000000000e+00
3.0000000000000000e+00
3.0000000000000000e+00
3.0000000000000000e+00
3.0000000000000000e+00
3.0000000000000000e+00
3.0000000000000000e+00
3.0000000000000000e+00
3.0000000000000000e+00
3.0000000000000000e+00
3.0000000000000000e+00
3.0000000000000000e+00
3.0000000000000000e+00
3.0000000000000000e+00
3.0000000000000000e+00
3.0000000000000000e+00
3.0000000000000000e+00
3.0000000000000000e+00
3.0000000000000000e+00
3.0000000000000000e+00
3.0000000000000000e+00
3.0000000000000000e+00
3.0000000000000000e+00
3.0000000000000000e+00
3.0000000000000000e+00
3.0000000000000000e+00
3.0000000000000000e+00
3.0000000000000000e+00
3.0000000000000000e+00
3.0000000000000000e+00
3.0000000000000000e+00
3.0000000000000000e+00
3.0000000000000000e+00
3.0000000000000000e+00
3.0000000000000000e+00
3.0000000000000000e+00
3.0000000000000000e+00
3.0000000000000000e+00
3.0000000000000000e+00
3.0000000000000000e+00
3.0000000000000000e+00
3.0000000000000000e+00
3.0000000000000000e+00
3.0000000000000000e+00
3.0000000000000000e+00
3.0000000000000000e+00
3.0000000000000000e+00
3.0000000000000000e+00
3.0000000000000000e+00


