# vtk DataFile Version 2.0

ASCII

DATASET UNSTRUCTURED_GRID

POINTS 101 float

0.0000000000000000e+00 0.0000000000000000e+00 0.0000000000000000e+00
1.0000000000000001e-01 0.0000000000000000e+00 0.0000000000000000e+00
2.0000000000000001e-01 0.0000000000000000e+00 0.0000000000000000e+00
3.0000000000000004e-01 0.0000000000000000e+00 0.0000000000000000e+00
4.0000000000000002e-01 0.0000000000000000e+00 0.0000000000000000e+00
5.0000000000000000e-01 0.0000000000000000e+00 0.0000000000000000e+00
6.0000000000000009e-01 0.0000000000000000e+00 0.0000000000000000e+00
7.0000000000000007e-01 0.0000000000000000e+00 0.0000000000000000e+00
8.0000000000000004e-01 0.0000000000000000e+00 0.0000000000000000e+00
9.0000000000000002e-01 0.0000000000000000e+00 0.0000000000000000e+00
1.0000000000000000e+00 0.0000000000000000e+00 0.0000000000000000e+00
1.1000000000000001e+00 0.0000000000000000e+00 0.0000000000000000e+00
1.2000000000000002e+00 0.0000000000000000e+00 0.0000000000000000e+00
1.3000000000000000e+00 0.0000000000000000e+00 0.0000000000000000e+00
1.4000000000000001e+00 0.0000000000000000e+00 0.0000000000000000e+00
1.5000000000000000e+00 0.0000000000000000e+00 0.0000000000000000e+00
1.6000000000000001e+00 0.0000000000000000e+00 0.0000000000000000e+00
1.7000000000000002e+00 0.0000000000000000e+00 0.0000000000000000e+00
1.8000000000000000e+00 0.0000000000000000e+00 0.0000000000000000e+00
1.9000000000000001e+00 0.0000000000000000e+00 0.0000000000000000e+00
2.0000000000000000e+00 0.0000000000000000e+00 0.0000000000000000e+00
2.1000000000000001e+00 0.0000000000000000e+00 0.0000000000000000e+00
2.2000000000000002e+00 0.0000000000000000e+00 0.0000000000000000e+00
2.3000000000000003e+00 0.0000000000000000e+00 0.0000000000000000e+00
2.4000000000000004e+00 0.0000000000000000e+00 0.0000000000000000e+00
2.5000000000000000e+00 0.0000000000000000e+00 0.0000000000000000e+00
2.6000000000000001e+00 0.0000000000000000e+00 0.0000000000000000e+00
2.7000000000000002e+00 0.0000000000000000e+00 0.0000000000000000e+00
2.8000000000000003e+00 0.0000000000000000e+00 0.0000000000000000e+00
2.9000000000000004e+00 0.0000000000000000e+00 0.0000000000000000e+00
3.0000000000000000e+00 0.0000000000000000e+00 0.0000000000000000e+00
3.1000000000000001e+00 0.0000000000000000e+00 0.0000000000000000e+00
3.2000000000000002e+00 0.0000000000000000e+00 0.0000000000000000e+00
3.3000000000000003e+00 0.0000000000000000e+00 0.0000000000000000e+00
3.4000000000000004e+00 0.0000000000000000e+00 0.0000000000000000e+00
3.5000000000000000e+00 0.0000000000000000e+00 0.0000000000000000e+00
3.6000000000000001e+00 0.0000000000000000e+00 0.0000000000000000e+00
3.7000000000000002e+00 0.0000000000000000e+00 0.0000000000000000e+00
3.8000000000000003e+00 0.0000000000000000e+00 0.0000000000000000e+00
3.9000000000000004e+00 0.0000000000000000e+00 0.0000000000000000e+00
4.0000000000000000e+00 0.0000000000000000e+00 0.0000000000000000e+00
4.1000000000000005e+00 0.0000000000000000e+00 0.0000000000000000e+00
4.2000000000000002e+00 0.0000000000000000e+00 0.0000000000000000e+00
4.2999999999999998e+00 0.0000000000000000e+00 0.0000000000000000e+00
4.4000000000000004e+00 0.0000000000000000e+00 0.0000000000000000e+00
4.5000000000000000e+00 0.0000000000000000e+00 0.0000000000000000e+00
4.6000000000000005e+00 0.0000000000000000e+00 0.0000000000000000e+00
4.7000000000000002e+00 0.0000000000000000e+00 0.0000000000000000e+00
4.8000000000000007e+00 0.0000000000000000e+00 0.0000000000000000e+00
4.9000000000000004e+00 0.0000000000000000e+00 0.0000000000000000e+00
5.0000000000000000e+00 0.0000000000000000e+00 0.0000000000000000e+00
5.1000000000000005e+00 0.0000000000000000e+00 0.0000000000000000e+00
5.2000000000000002e+00 0.0000000000000000e+00 0.0000000000000000e+00
5.3000000000000007e+00 0.0000000000000000e+00 0.0000000000000000e+00
5.4000000000000004e+00 0.0000000000000000e+00 0.0000000000000000e+00
5.5000000000000000e+00 0.0000000000000000e+00 0.0000000000000000e+00
5.6000000000000005e+00 0.0000000000000000e+00 0.0000000000000000e+00
5.7000000000000002e+00 0.0000000000000000e+00 0.0000000000000000e+00
5.8000000000000007e+00 0.0000000000000000e+00 0.0000000000000000e+00
5.9000000000000004e+00 0.0000000000000000e+00 0.0000000000000000e+00
6.0000000000000000e+00 0.0000000000000000e+00 0.0000000000000000e+00
6.1000000000000005e+00 0.0000000000000000e+00 0.0000000000000000e+00
6.2000000000000002e+00 0.0000000000000000e+00 0.0000000000000000e+00
6.3000000000000007e+00 0.0000000000000000e+00 0.0000000000000000e+00
6.4000000000000004e+00 0.0000000000000000e+00 0.0000000000000000e+00
6.5000000000000000e+00 0.0000000000000000e+00 0.0000000000000000e+00
6.6000000000000005e+00 0.0000000000000000e+00 0.0000000000000000e+00
6.7000000000000002e+00 0.0000000000000000e+00 0.0000000000000000e+00
6.8000000000000007e+00 0.0000000000000000e+00 0.0000000000000000e+00
6.9000000000000004e+00 0.0000000000000000e+00 0.0000000000000000e+00
7.0000000000000000e+00 0.0000000000000000e+00 0.0000000000000000e+00
7.1000000000000005e+00 0.0000000000000000e+00 0.0000000000000000e+00
7.2000000000000002e+00 0.0000000000000000e+00 0.0000000000000000e+00
7.3000000000000007e+00 0.0000000000000000e+00 0.0000000000000000e+00
7.4000000000000004e+00 0.0000000000000000e+00 0.0000000000000000e+00
7.5000000000000000e+00 0.0000000000000000e+00 0.0000000000000000e+00
7.6000000000000005e+00 0.0000000000000000e+00 0.0000000000000000e+00
7.7000000000000002e+00 0.0000000000000000e+00 0.0000000000000000e+00
7.8000000000000007e+00 0.0000000000000000e+00 0.0000000000000000e+00
7.9000000000000004e+00 0.0000000000000000e+00 0.0000000000000000e+00
8.0000000000000000e+00 0.0000000000000000e+00 0.0000000000000000e+00
8.0999999999999996e+00 0.0000000000000000e+00 0.0000000000000000e+00
8.2000000000000011e+00 0.0000000000000000e+00 0.0000000000000000e+00
8.3000000000000007e+00 0.0000000000000000e+00 0.0000000000000000e+00
8.4000000000000004e+00 0.0000000000000000e+00 0.0000000000000000e+00
8.5000000000000000e+00 0.0000000000000000e+00 0.0000000000000000e+00
8.5999999999999996e+00 0.0000000000000000e+00 0.0000000000000000e+00
8.7000000000000011e+00 0.0000000000000000e+00 0.0000000000000000e+00
8.8000000000000007e+00 0.0000000000000000e+00 0.0000000000000000e+00
8.9000000000000004e+00 0.0000000000000000e+00 0.0000000000000000e+00
9.0000000000000000e+00 0.0000000000000000e+00 0.0000000000000000e+00
9.0999999999999996e+00 0.0000000000000000e+00 0.0000000000000000e+00
9.2000000000000011e+00 0.0000000000000000e+00 0.0000000000000000e+00
9.3000000000000007e+00 0.0000000000000000e+00 0.0000000000000000e+00
9.4000000000000004e+00 0.0000000000000000e+00 0.0000000000000000e+00
9.5000000000000000e+00 0.0000000000000000e+00 0.0000000000000000e+00
9.6000000000000014e+00 0.0000000000000000e+00 0.0000000000000000e+00
9.7000000000000011e+00 0.0000000000000000e+00 0.0000000000000000e+00
9.8000000000000007e+00 0.0000000000000000e+00 0.0000000000000000e+00
9.9000000000000004e+00 0.0000000000000000e+00 0.0000000000000000e+00
1.0000000000000000e+01 0.0000000000000000e+00 0.0000000000000000e+00

POINT_DATA 101

VECTORS velocity float
4.6708731454622532e+00 0.0000000000000000e+00 0.0000000000000000e+00
4.6711726666219535e+00 0.0000000000000000e+00 0.0000000000000000e+00
4.6714690345505083e+00 0.0000000000000000e+00 0.0000000000000000e+00
4.6717594113495275e+00 0.0000000000000000e+00 0.0000000000000000e+00
4.6720432799932050e+00 0.0000000000000000e+00 0.0000000000000000e+00
4.6723242045539131e+00 0.0000000000000000e+00 0.0000000000000000e+00
4.6726062605437342e+00 0.0000000000000000e+00 0.0000000000000000e+00
4.6728876443981191e+00 0.0000000000000000e+00 0.0000000000000000e+00
4.6731655219002164e+00 0.0000000000000000e+00 0.0000000000000000e+00
4.6734398557134273e+00 0.0000000000000000e+00 0.0000000000000000e+00
4.6737111425448727e+00 0.0000000000000000e+00 0.0000000000000000e+00
4.6739795446033634e+00 0.0000000000000000e+00 0.0000000000000000e+00
4.6742467584801597e+00 0.0000000000000000e+00 0.0000000000000000e+00
4.6745156106331063e+00 0.0000000000000000e+00 0.0000000000000000e+00
4.6747853728601427e+00 0.0000000000000000e+00 0.0000000000000000e+00
4.6750544636251004e+00 0.0000000000000000e+00 0.0000000000000000e+00
4.6753179623135921e+00 0.0000000000000000e+00 0.0000000000000000e+00
4.6755739540354622e+00 0.0000000000000000e+00 0.0000000000000000e+00
4.6758278007765792e+00 0.0000000000000000e+00 0.0000000000000000e+00
4.6760817536715438e+00 0.0000000000000000e+00 0.0000000000000000e+00
4.6763343438863991e+00 0.0000000000000000e+00 0.0000000000000000e+00
4.6765840443980178e+00 0.0000000000000000e+00 0.0000000000000000e+00
4.6768309032445270e+00 0.0000000000000000e+00 0.0000000000000000e+00
4.6770753735728192e+00 0.0000000000000000e+00 0.0000000000000000e+00
4.6773228167622136e+00 0.0000000000000000e+00 0.0000000000000000e+00
4.6775705892892487e+00 0.0000000000000000e+00 0.0000000000000000e+00
4.6778131171282196e+00 0.0000000000000000e+00 0.0000000000000000e+00
4.6780524285020979e+00 0.0000000000000000e+00 0.0000000000000000e+00
4.6782892945698453e+00 0.0000000000000000e+00 0.0000000000000000e+00
4.6785232168871387e+00 0.0000000000000000e+00 0.0000000000000000e+00
4.6787538655315348e+00 0.0000000000000000e+00 0.0000000000000000e+00
4.6789818198992545e+00 0.0000000000000000e+00 0.0000000000000000e+00
4.6792079206990449e+00 0.0000000000000000e+00 0.0000000000000000e+00
4.6794331194874124e+00 0.0000000000000000e+00 0.0000000000000000e+00
4.6796570417572765e+00 0.0000000000000000e+00 0.0000000000000000e+00
4.6798792365891266e+00 0.0000000000000000e+00 0.0000000000000000e+00
4.6800995403332859e+00 0.0000000000000000e+00 0.0000000000000000e+00
4.6803178398939558e+00 0.0000000000000000e+00 0.0000000000000000e+00
4.6805341522572865e+00 0.0000000000000000e+00 0.0000000000000000e+00
4.6807482636087201e+00 0.0000000000000000e+00 0.0000000000000000e+00
4.6809600279682337e+00 0.0000000000000000e+00 0.0000000000000000e+00
4.6811696278881421e+00 0.0000000000000000e+00 0.0000000000000000e+00
4.6813771210843615e+00 0.0000000000000000e+00 0.0000000000000000e+00
4.6815825374408941e+00 0.0000000000000000e+00 0.0000000000000000e+00
4.6817858930606731e+00 0.0000000000000000e+00 0.0000000000000000e+00
4.6819871967939992e+00 0.0000000000000000e+00 0.0000000000000000e+00
4.6821864539650146e+00 0.0000000000000000e+00 0.0000000000000000e+00
4.6823836670095096e+00 0.0000000000000000e+00 0.0000000000000000e+00
4.6825788383403095e+00 0.0000000000000000e+00 0.0000000000000000e+00
4.6827719700374084e+00 0.0000000000000000e+00 0.0000000000000000e+00
4.6829630634485033e+00 0.0000000000000000e+00 0.0000000000000000e+00
4.6831521206285549e+00 0.0000000000000000e+00 0.0000000000000000e+00
4.6833391424658588e+00 0.0000000000000000e+00 0.0000000000000000e+00
4.6835241298253187e+00 0.0000000000000000e+00 0.0000000000000000e+00
4.6837070841966657e+00 0.0000000000000000e+00 0.0000000000000000e+00
4.6838880067403093e+00 0.0000000000000000e+00 0.0000000000000000e+00
4.6840668984079246e+00 0.0000000000000000e+00 0.0000000000000000e+00
4.6842437605023024e+00 0.0000000000000000e+00 0.0000000000000000e+00
4.6844185943847023e+00 0.0000000000000000e+00 0.0000000000000000e+00
4.6845914008781495e+00 0.0000000000000000e+00 0.0000000000000000e+00
4.6847621807480451e+00 0.0000000000000000e+00 0.0000000000000000e+00
4.6849309355332212e+00 0.0000000000000000e+00 0.0000000000000000e+00
4.6850976664724975e+00 0.0000000000000000e+00 0.0000000000000000e+00
4.6852623742777038e+00 0.0000000000000000e+00 0.0000000000000000e+00
4.6854250599274483e+00 0.0000000000000000e+00 0.0000000000000000e+00
4.6855857243939472e+00 0.0000000000000000e+00 0.0000000000000000e+00
4.6857443686000098e+00 0.0000000000000000e+00 0.0000000000000000e+00
4.6859009935655020e+00 0.0000000000000000e+00 0.0000000000000000e+00
4.6860556002291940e+00 0.0000000000000000e+00 0.0000000000000000e+00
4.6862081894610554e+00 0.0000000000000000e+00 0.0000000000000000e+00
4.6863587621258587e+00 0.0000000000000000e+00 0.0000000000000000e+00
4.6865073191802491e+00 0.0000000000000000e+00 0.0000000000000000e+00
4.6866538614813216e+00 0.0000000000000000e+00 0.0000000000000000e+00
4.6867983897567465e+00 0.0000000000000000e+00 0.0000000000000000e+00
4.6869409048388242e+00 0.0000000000000000e+00 0.0000000000000000e+00
4.6870814073565654e+00 0.0000000000000000e+00 0.0000000000000000e+00
4.6872198980804205e+00 0.0000000000000000e+00 0.0000000000000000e+00
4.6873563777069194e+00 0.0000000000000000e+00 0.0000000000000000e+00
4.6874908470835530e+00 0.0000000000000000e+00 0.0000000000000000e+00
4.6876233067943227e+00 0.0000000000000000e+00 0.0000000000000000e+00
4.6877537577822608e+00 0.0000000000000000e+00 0.0000000000000000e+00
4.6878822008611953e+00 0.0000000000000000e+00 0.0000000000000000e+00
4.6880086365719960e+00 0.0000000000000000e+00 0.0000000000000000e+00
4.6881330647601214e+00 0.0000000000000000e+00 0.0000000000000000e+00
4.6882554862227250e+00 0.0000000000000000e+00 0.0000000000000000e+00
4.6883759030299421e+00 0.0000000000000000e+00 0.0000000000000000e+00
4.6884943164322275e+00 0.0000000000000000e+00 0.0000000000000000e+00
4.6886107244711548e+00 0.0000000000000000e+00 0.0000000000000000e+00
4.6887251267381416e+00 0.0000000000000000e+00 0.0000000000000000e+00
4.6888375239522420e+00 0.0000000000000000e+00 0.0000000000000000e+00
4.6889479195202073e+00 0.0000000000000000e+00 0.0000000000000000e+00
4.6890563143877459e+00 0.0000000000000000e+00 0.0000000000000000e+00
4.6891627084584373e+00 0.0000000000000000e+00 0.0000000000000000e+00
4.6892670973978463e+00 0.0000000000000000e+00 0.0000000000000000e+00
4.6893694933584591e+00 0.0000000000000000e+00 0.0000000000000000e+00
4.6894698670797927e+00 0.0000000000000000e+00 0.0000000000000000e+00
4.6895682927186142e+00 0.0000000000000000e+00 0.0000000000000000e+00
4.6896645876580800e+00 0.0000000000000000e+00 0.0000000000000000e+00
4.6897592052492438e+00 0.0000000000000000e+00 0.0000000000000000e+00
4.6898510196240908e+00 0.0000000000000000e+00 0.0000000000000000e+00
4.6899428339989369e+00 0.0000000000000000e+00 0.0000000000000000e+00


SCALARS pressure float
LOOKUP_TABLE default
2.0710823606446837e+01
2.0502550207050980e+01
2.0294276807655123e+01
2.0086026135517429e+01
1.9877814227467283e+01
1.9669645913836749e+01
1.9461507914894522e+01
1.9253382539327745e+01
1.9045274425512456e+01
1.8837194782768496e+01
1.8629145420831804e+01
1.8421124624897175e+01
1.8213131395474960e+01
1.8005158767396416e+01
1.7797194764525212e+01
1.7589240756943923e+01
1.7381303366837553e+01
1.7173403047857228e+01
1.6965549450811586e+01
1.6757722595321589e+01
1.6549911341283099e+01
1.6342120481688415e+01
1.6134356983356717e+01
1.5926621587434783e+01
1.5718912186889956e+01
1.5511207114039671e+01
1.5303514620850759e+01
1.5095857700793653e+01
1.4888231518912695e+01
1.4680632264366528e+01
1.4473061415938890e+01
1.4265520523015855e+01
1.4058007542621548e+01
1.3850518869118256e+01
1.3643050278002754e+01
1.3435602686234853e+01
1.3228178033461687e+01
1.3020777251844626e+01
1.2813400920570803e+01
1.2606049046364973e+01
1.2398722468956809e+01
1.2191421815079563e+01
1.1984146392591914e+01
1.1776895813858051e+01
1.1569669843415886e+01
1.1362468318910583e+01
1.1155291113170650e+01
1.0948138113835295e+01
1.0741009218576830e+01
1.0533904322890059e+01
1.0326823319800919e+01
1.0119766101246471e+01
9.9127325528524750e+00
9.7057225605846362e+00
9.4987360072648030e+00
9.2917727696191150e+00
9.0848327216369906e+00
8.8779157346817623e+00
8.6710216752913567e+00
8.4641504060921058e+00
8.2573017883592144e+00
8.0504756805023323e+00
7.8436719347428401e+00
7.6368904010244014e+00
7.4301309283553421e+00
7.2233933619424811e+00
7.0166775439249633e+00
6.8099833137152705e+00
6.6033105075157863e+00
6.3966589590188550e+00
6.1900284995247574e+00
5.9834189577851742e+00
5.7768301596768241e+00
5.5702619290250857e+00
5.3637140878357945e+00
5.1571864554822460e+00
4.9506788498673284e+00
4.7441910861470644e+00
4.5377229776512422e+00
4.3312743350504217e+00
4.1248449682413586e+00
3.9184346838948683e+00
3.7120432872511828e+00
3.5056705829404926e+00
3.2993163767698701e+00
3.0929804694802128e+00
2.8866626550235361e+00
2.6803627284721987e+00
2.4740804962837770e+00
2.2678157594611190e+00
2.0615683126171551e+00
1.8553379376683095e+00
1.6491244240043914e+00
1.4429275653009057e+00
1.2367471713580929e+00
1.0305829893026861e+00
8.2443491820661619e-01
6.1830247478566558e-01
4.1218612346796996e-01
2.0608397484283530e-01
0.0000000000000000e+00


SCALARS diameter float
LOOKUP_TABLE default
1.0018740198853520e+00
1.0018527413074574e+00
1.0018324494177635e+00
1.0018135137350606e+00
1.0017958852606839e+00
1.0017783280422174e+00
1.0017593420893294e+00
1.0017396156316196e+00
1.0017208640739250e+00
1.0017025663250256e+00
1.0016844813414618e+00
1.0016664633963765e+00
1.0016483108391530e+00
1.0016288741705717e+00
1.0016084734145259e+00
1.0015881087427796e+00
1.0015685114750461e+00
1.0015513265979643e+00
1.0015336772729813e+00
1.0015149219700741e+00
1.0014959239543928e+00
1.0014774044548491e+00
1.0014591270841380e+00
1.0014408982974372e+00
1.0014215602455065e+00
1.0014004623594217e+00
1.0013816584596151e+00
1.0013628981969631e+00
1.0013441413364461e+00
1.0013254328498522e+00
1.0013072287318772e+00
1.0012890226379116e+00
1.0012707989985536e+00
1.0012520895579715e+00
1.0012331894791218e+00
1.0012142944138167e+00
1.0011954034471271e+00
1.0011765160096113e+00
1.0011576324790630e+00
1.0011387604736490e+00
1.0011200215438876e+00
1.0011012843319720e+00
1.0010825493029101e+00
1.0010638167770793e+00
1.0010450867609255e+00
1.0010263592186199e+00
1.0010076341627527e+00
1.0009889117134811e+00
1.0009701921156318e+00
1.0009514748190891e+00
1.0009327602565283e+00
1.0009140479854504e+00
1.0008953381767625e+00
1.0008766310500972e+00
1.0008579264192281e+00
1.0008392242340316e+00
1.0008205246267365e+00
1.0008018275090369e+00
1.0007831327748005e+00
1.0007644404846507e+00
1.0007457508071511e+00
1.0007270635517904e+00
1.0007083785502326e+00
1.0006896959958802e+00
1.0006710158707328e+00
1.0006523381228745e+00
1.0006336627801429e+00
1.0006149897861236e+00
1.0005963191243235e+00
1.0005776508003572e+00
1.0005589848079639e+00
1.0005403211076473e+00
1.0005216596587838e+00
1.0005030004975000e+00
1.0004843435977213e+00
1.0004656889535160e+00
1.0004470366082201e+00
1.0004283864730401e+00
1.0004097385961150e+00
1.0003910928619550e+00
1.0003724493593700e+00
1.0003538077981315e+00
1.0003351684335593e+00
1.0003165312258473e+00
1.0002978964829976e+00
1.0002792633186068e+00
1.0002606317513218e+00
1.0002420022181322e+00
1.0002233758081516e+00
1.0002047512750840e+00
1.0001861288613731e+00
1.0001675068618752e+00
1.0001488874112441e+00
1.0001302697819481e+00
1.0001116542272808e+00
1.0000930405064694e+00
1.0000744286757484e+00
1.0000558186719959e+00
1.0000372106971418e+00
1.0000186046750226e+00
1.0000000000898357e+00


SCALARS iters float
LOOKUP_TABLE default
3.0000000000000000e+00
3.0000000000000000e+00
3.0000000000000000e+00
3.0000000000000000e+00
3.0000000000000000e+00
3.0000000000000000e+00
3.0000000000000000e+00
3.0000000000000000e+00
3.0000000000000000e+00
3.0000000000000000e+00
3.0000000000000000e+00
3.0000000000000000e+00
3.0000000000000000e+00
3.0000000000000000e+00
3.0000000000000000e+00
3.0000000000000000e+00
3.0000000000000000e+00
3.0000000000000000e+00
3.0000000000000000e+00
3.0000000000000000e+00
3.0000000000000000e+00
3.0000000000000000e+00
3.0000000000000000e+00
3.0000000000000000e+00
3.0000000000000000e+00
3.0000000000000000e+00
3.0000000000000000e+00
3.0000000000000000e+00
3.0000000000000000e+00
3.0000000000000000e+00
3.0000000000000000e+00
3.0000000000000000e+00
3.0000000000000000e+00
3.0000000000000000e+00
3.0000000000000000e+00
3.0000000000000000e+00
3.0000000000000000e+00
3.0000000000000000e+00
3.0000000000000000e+00
3.0000000000000000e+00
3.0000000000000000e+00
3.0000000000000000e+00
3.0000000000000000e+00
3.0000000000000000e+00
3.0000000000000000e+00
3.0000000000000000e+00
3.0000000000000000e+00
3.0000000000000000e+00
3.0000000000000000e+00
3.0000000000000000e+00
3.0000000000000000e+00
3.0000000000000000e+00
3.0000000000000000e+00
3.0000000000000000e+00
3.0000000000000000e+00
3.0000000000000000e+00
3.0000000000000000e+00
3.0000000000000000e+00
3.0000000000000000e+00
3.0000000000000000e+00
3.0000000000000000e+00
3.0000000000000000e+00
3.0000000000000000e+00
3.0000000000000000e+00
3.0000000000000000e+00
3.0000000000000000e+00
3.0000000000000000e+00
3.0000000000000000e+00
3.0000000000000000e+00
3.0000000000000000e+00
3.0000000000000000e+00
3.0000000000000000e+00
3.0000000000000000e+00
3.0000000000000000e+00
3.0000000000000000e+00
3.0000000000000000e+00
3.0000000000000000e+00
3.0000000000000000e+00
3.0000000000000000e+00
3.0000000000000000e+00
3.0000000000000000e+00
3.0000000000000000e+00
3.0000000000000000e+00
3.0000000000000000e+00
3.0000000000000000e+00
3.0000000000000000e+00
3.0000000000000000e+00
3.0000000000000000e+00
3.0000000000000000e+00
3.0000000000000000e+00
3.0000000000000000e+00
3.0000000000000000e+00
3.0000000000000000e+00
3.0000000000000000e+00
3.0000000000000000e+00
3.0000000000000000e+00
3.0000000000000000e+00
3.0000000000000000e+00
3.0000000000000000e+00
3.0000000000000000e+00
3.0000000000000000e+00


