# vtk DataFile Version 2.0

ASCII

DATASET UNSTRUCTURED_GRID

POINTS 101 float

0.0000000000000000e+00 0.0000000000000000e+00 0.0000000000000000e+00
1.0000000000000001e-01 0.0000000000000000e+00 0.0000000000000000e+00
2.0000000000000001e-01 0.0000000000000000e+00 0.0000000000000000e+00
3.0000000000000004e-01 0.0000000000000000e+00 0.0000000000000000e+00
4.0000000000000002e-01 0.0000000000000000e+00 0.0000000000000000e+00
5.0000000000000000e-01 0.0000000000000000e+00 0.0000000000000000e+00
6.0000000000000009e-01 0.0000000000000000e+00 0.0000000000000000e+00
7.0000000000000007e-01 0.0000000000000000e+00 0.0000000000000000e+00
8.0000000000000004e-01 0.0000000000000000e+00 0.0000000000000000e+00
9.0000000000000002e-01 0.0000000000000000e+00 0.0000000000000000e+00
1.0000000000000000e+00 0.0000000000000000e+00 0.0000000000000000e+00
1.1000000000000001e+00 0.0000000000000000e+00 0.0000000000000000e+00
1.2000000000000002e+00 0.0000000000000000e+00 0.0000000000000000e+00
1.3000000000000000e+00 0.0000000000000000e+00 0.0000000000000000e+00
1.4000000000000001e+00 0.0000000000000000e+00 0.0000000000000000e+00
1.5000000000000000e+00 0.0000000000000000e+00 0.0000000000000000e+00
1.6000000000000001e+00 0.0000000000000000e+00 0.0000000000000000e+00
1.7000000000000002e+00 0.0000000000000000e+00 0.0000000000000000e+00
1.8000000000000000e+00 0.0000000000000000e+00 0.0000000000000000e+00
1.9000000000000001e+00 0.0000000000000000e+00 0.0000000000000000e+00
2.0000000000000000e+00 0.0000000000000000e+00 0.0000000000000000e+00
2.1000000000000001e+00 0.0000000000000000e+00 0.0000000000000000e+00
2.2000000000000002e+00 0.0000000000000000e+00 0.0000000000000000e+00
2.3000000000000003e+00 0.0000000000000000e+00 0.0000000000000000e+00
2.4000000000000004e+00 0.0000000000000000e+00 0.0000000000000000e+00
2.5000000000000000e+00 0.0000000000000000e+00 0.0000000000000000e+00
2.6000000000000001e+00 0.0000000000000000e+00 0.0000000000000000e+00
2.7000000000000002e+00 0.0000000000000000e+00 0.0000000000000000e+00
2.8000000000000003e+00 0.0000000000000000e+00 0.0000000000000000e+00
2.9000000000000004e+00 0.0000000000000000e+00 0.0000000000000000e+00
3.0000000000000000e+00 0.0000000000000000e+00 0.0000000000000000e+00
3.1000000000000001e+00 0.0000000000000000e+00 0.0000000000000000e+00
3.2000000000000002e+00 0.0000000000000000e+00 0.0000000000000000e+00
3.3000000000000003e+00 0.0000000000000000e+00 0.0000000000000000e+00
3.4000000000000004e+00 0.0000000000000000e+00 0.0000000000000000e+00
3.5000000000000000e+00 0.0000000000000000e+00 0.0000000000000000e+00
3.6000000000000001e+00 0.0000000000000000e+00 0.0000000000000000e+00
3.7000000000000002e+00 0.0000000000000000e+00 0.0000000000000000e+00
3.8000000000000003e+00 0.0000000000000000e+00 0.0000000000000000e+00
3.9000000000000004e+00 0.0000000000000000e+00 0.0000000000000000e+00
4.0000000000000000e+00 0.0000000000000000e+00 0.0000000000000000e+00
4.1000000000000005e+00 0.0000000000000000e+00 0.0000000000000000e+00
4.2000000000000002e+00 0.0000000000000000e+00 0.0000000000000000e+00
4.2999999999999998e+00 0.0000000000000000e+00 0.0000000000000000e+00
4.4000000000000004e+00 0.0000000000000000e+00 0.0000000000000000e+00
4.5000000000000000e+00 0.0000000000000000e+00 0.0000000000000000e+00
4.6000000000000005e+00 0.0000000000000000e+00 0.0000000000000000e+00
4.7000000000000002e+00 0.0000000000000000e+00 0.0000000000000000e+00
4.8000000000000007e+00 0.0000000000000000e+00 0.0000000000000000e+00
4.9000000000000004e+00 0.0000000000000000e+00 0.0000000000000000e+00
5.0000000000000000e+00 0.0000000000000000e+00 0.0000000000000000e+00
5.1000000000000005e+00 0.0000000000000000e+00 0.0000000000000000e+00
5.2000000000000002e+00 0.0000000000000000e+00 0.0000000000000000e+00
5.3000000000000007e+00 0.0000000000000000e+00 0.0000000000000000e+00
5.4000000000000004e+00 0.0000000000000000e+00 0.0000000000000000e+00
5.5000000000000000e+00 0.0000000000000000e+00 0.0000000000000000e+00
5.6000000000000005e+00 0.0000000000000000e+00 0.0000000000000000e+00
5.7000000000000002e+00 0.0000000000000000e+00 0.0000000000000000e+00
5.8000000000000007e+00 0.0000000000000000e+00 0.0000000000000000e+00
5.9000000000000004e+00 0.0000000000000000e+00 0.0000000000000000e+00
6.0000000000000000e+00 0.0000000000000000e+00 0.0000000000000000e+00
6.1000000000000005e+00 0.0000000000000000e+00 0.0000000000000000e+00
6.2000000000000002e+00 0.0000000000000000e+00 0.0000000000000000e+00
6.3000000000000007e+00 0.0000000000000000e+00 0.0000000000000000e+00
6.4000000000000004e+00 0.0000000000000000e+00 0.0000000000000000e+00
6.5000000000000000e+00 0.0000000000000000e+00 0.0000000000000000e+00
6.6000000000000005e+00 0.0000000000000000e+00 0.0000000000000000e+00
6.7000000000000002e+00 0.0000000000000000e+00 0.0000000000000000e+00
6.8000000000000007e+00 0.0000000000000000e+00 0.0000000000000000e+00
6.9000000000000004e+00 0.0000000000000000e+00 0.0000000000000000e+00
7.0000000000000000e+00 0.0000000000000000e+00 0.0000000000000000e+00
7.1000000000000005e+00 0.0000000000000000e+00 0.0000000000000000e+00
7.2000000000000002e+00 0.0000000000000000e+00 0.0000000000000000e+00
7.3000000000000007e+00 0.0000000000000000e+00 0.0000000000000000e+00
7.4000000000000004e+00 0.0000000000000000e+00 0.0000000000000000e+00
7.5000000000000000e+00 0.0000000000000000e+00 0.0000000000000000e+00
7.6000000000000005e+00 0.0000000000000000e+00 0.0000000000000000e+00
7.7000000000000002e+00 0.0000000000000000e+00 0.0000000000000000e+00
7.8000000000000007e+00 0.0000000000000000e+00 0.0000000000000000e+00
7.9000000000000004e+00 0.0000000000000000e+00 0.0000000000000000e+00
8.0000000000000000e+00 0.0000000000000000e+00 0.0000000000000000e+00
8.0999999999999996e+00 0.0000000000000000e+00 0.0000000000000000e+00
8.2000000000000011e+00 0.0000000000000000e+00 0.0000000000000000e+00
8.3000000000000007e+00 0.0000000000000000e+00 0.0000000000000000e+00
8.4000000000000004e+00 0.0000000000000000e+00 0.0000000000000000e+00
8.5000000000000000e+00 0.0000000000000000e+00 0.0000000000000000e+00
8.5999999999999996e+00 0.0000000000000000e+00 0.0000000000000000e+00
8.7000000000000011e+00 0.0000000000000000e+00 0.0000000000000000e+00
8.8000000000000007e+00 0.0000000000000000e+00 0.0000000000000000e+00
8.9000000000000004e+00 0.0000000000000000e+00 0.0000000000000000e+00
9.0000000000000000e+00 0.0000000000000000e+00 0.0000000000000000e+00
9.0999999999999996e+00 0.0000000000000000e+00 0.0000000000000000e+00
9.2000000000000011e+00 0.0000000000000000e+00 0.0000000000000000e+00
9.3000000000000007e+00 0.0000000000000000e+00 0.0000000000000000e+00
9.4000000000000004e+00 0.0000000000000000e+00 0.0000000000000000e+00
9.5000000000000000e+00 0.0000000000000000e+00 0.0000000000000000e+00
9.6000000000000014e+00 0.0000000000000000e+00 0.0000000000000000e+00
9.7000000000000011e+00 0.0000000000000000e+00 0.0000000000000000e+00
9.8000000000000007e+00 0.0000000000000000e+00 0.0000000000000000e+00
9.9000000000000004e+00 0.0000000000000000e+00 0.0000000000000000e+00
1.0000000000000000e+01 0.0000000000000000e+00 0.0000000000000000e+00

POINT_DATA 101

VECTORS velocity float
3.8247895114267165e+00 0.0000000000000000e+00 0.0000000000000000e+00
3.8250651395878639e+00 0.0000000000000000e+00 0.0000000000000000e+00
3.8252957471198514e+00 0.0000000000000000e+00 0.0000000000000000e+00
3.8254995224114277e+00 0.0000000000000000e+00 0.0000000000000000e+00
3.8256885345010039e+00 0.0000000000000000e+00 0.0000000000000000e+00
3.8258706844765507e+00 0.0000000000000000e+00 0.0000000000000000e+00
3.8260509289859392e+00 0.0000000000000000e+00 0.0000000000000000e+00
3.8262328046253984e+00 0.0000000000000000e+00 0.0000000000000000e+00
3.8264147091697329e+00 0.0000000000000000e+00 0.0000000000000000e+00
3.8265947848197865e+00 0.0000000000000000e+00 0.0000000000000000e+00
3.8267734648588152e+00 0.0000000000000000e+00 0.0000000000000000e+00
3.8269511179835800e+00 0.0000000000000000e+00 0.0000000000000000e+00
3.8271284000373988e+00 0.0000000000000000e+00 0.0000000000000000e+00
3.8273075730002173e+00 0.0000000000000000e+00 0.0000000000000000e+00
3.8274889419603908e+00 0.0000000000000000e+00 0.0000000000000000e+00
3.8276720840108647e+00 0.0000000000000000e+00 0.0000000000000000e+00
3.8278538808581306e+00 0.0000000000000000e+00 0.0000000000000000e+00
3.8280313668382457e+00 0.0000000000000000e+00 0.0000000000000000e+00
3.8282069695227885e+00 0.0000000000000000e+00 0.0000000000000000e+00
3.8283826361238331e+00 0.0000000000000000e+00 0.0000000000000000e+00
3.8285586058601258e+00 0.0000000000000000e+00 0.0000000000000000e+00
3.8287349709669316e+00 0.0000000000000000e+00 0.0000000000000000e+00
3.8289125116249969e+00 0.0000000000000000e+00 0.0000000000000000e+00
3.8290914594354017e+00 0.0000000000000000e+00 0.0000000000000000e+00
3.8292698982123157e+00 0.0000000000000000e+00 0.0000000000000000e+00
3.8294475578371956e+00 0.0000000000000000e+00 0.0000000000000000e+00
3.8296242881146751e+00 0.0000000000000000e+00 0.0000000000000000e+00
3.8298003784107064e+00 0.0000000000000000e+00 0.0000000000000000e+00
3.8299760387274615e+00 0.0000000000000000e+00 0.0000000000000000e+00
3.8301507117389177e+00 0.0000000000000000e+00 0.0000000000000000e+00
3.8303239800902018e+00 0.0000000000000000e+00 0.0000000000000000e+00
3.8304962582003679e+00 0.0000000000000000e+00 0.0000000000000000e+00
3.8306680455941762e+00 0.0000000000000000e+00 0.0000000000000000e+00
3.8308400097359976e+00 0.0000000000000000e+00 0.0000000000000000e+00
3.8310119643302829e+00 0.0000000000000000e+00 0.0000000000000000e+00
3.8311835808248240e+00 0.0000000000000000e+00 0.0000000000000000e+00
3.8313547292625421e+00 0.0000000000000000e+00 0.0000000000000000e+00
3.8315253343993612e+00 0.0000000000000000e+00 0.0000000000000000e+00
3.8316953819795301e+00 0.0000000000000000e+00 0.0000000000000000e+00
3.8318647842078124e+00 0.0000000000000000e+00 0.0000000000000000e+00
3.8320334632444504e+00 0.0000000000000000e+00 0.0000000000000000e+00
3.8322014715271853e+00 0.0000000000000000e+00 0.0000000000000000e+00
3.8323688216820608e+00 0.0000000000000000e+00 0.0000000000000000e+00
3.8325355110172721e+00 0.0000000000000000e+00 0.0000000000000000e+00
3.8327015309673613e+00 0.0000000000000000e+00 0.0000000000000000e+00
3.8328668703096871e+00 0.0000000000000000e+00 0.0000000000000000e+00
3.8330315163712108e+00 0.0000000000000000e+00 0.0000000000000000e+00
3.8331954551776253e+00 0.0000000000000000e+00 0.0000000000000000e+00
3.8333586737205052e+00 0.0000000000000000e+00 0.0000000000000000e+00
3.8335211593601675e+00 0.0000000000000000e+00 0.0000000000000000e+00
3.8336828987367975e+00 0.0000000000000000e+00 0.0000000000000000e+00
3.8338438797635179e+00 0.0000000000000000e+00 0.0000000000000000e+00
3.8340040895341807e+00 0.0000000000000000e+00 0.0000000000000000e+00
3.8341635150224560e+00 0.0000000000000000e+00 0.0000000000000000e+00
3.8343221442416642e+00 0.0000000000000000e+00 0.0000000000000000e+00
3.8344799656129815e+00 0.0000000000000000e+00 0.0000000000000000e+00
3.8346369671871416e+00 0.0000000000000000e+00 0.0000000000000000e+00
3.8347931372508040e+00 0.0000000000000000e+00 0.0000000000000000e+00
3.8349484646646093e+00 0.0000000000000000e+00 0.0000000000000000e+00
3.8351029380875166e+00 0.0000000000000000e+00 0.0000000000000000e+00
3.8352565461294033e+00 0.0000000000000000e+00 0.0000000000000000e+00
3.8354092781438642e+00 0.0000000000000000e+00 0.0000000000000000e+00
3.8355611237664058e+00 0.0000000000000000e+00 0.0000000000000000e+00
3.8357120724077527e+00 0.0000000000000000e+00 0.0000000000000000e+00
3.8358621138375320e+00 0.0000000000000000e+00 0.0000000000000000e+00
3.8360112380291382e+00 0.0000000000000000e+00 0.0000000000000000e+00
3.8361594350893427e+00 0.0000000000000000e+00 0.0000000000000000e+00
3.8363066954078535e+00 0.0000000000000000e+00 0.0000000000000000e+00
3.8364530095141940e+00 0.0000000000000000e+00 0.0000000000000000e+00
3.8365983680339428e+00 0.0000000000000000e+00 0.0000000000000000e+00
3.8367427618690559e+00 0.0000000000000000e+00 0.0000000000000000e+00
3.8368861821611127e+00 0.0000000000000000e+00 0.0000000000000000e+00
3.8370286202831942e+00 0.0000000000000000e+00 0.0000000000000000e+00
3.8371700676650322e+00 0.0000000000000000e+00 0.0000000000000000e+00
3.8373105159213989e+00 0.0000000000000000e+00 0.0000000000000000e+00
3.8374499569738116e+00 0.0000000000000000e+00 0.0000000000000000e+00
3.8375883826821431e+00 0.0000000000000000e+00 0.0000000000000000e+00
3.8377257854801559e+00 0.0000000000000000e+00 0.0000000000000000e+00
3.8378621575224483e+00 0.0000000000000000e+00 0.0000000000000000e+00
3.8379974915082125e+00 0.0000000000000000e+00 0.0000000000000000e+00
3.8381317806689599e+00 0.0000000000000000e+00 0.0000000000000000e+00
3.8382650181427578e+00 0.0000000000000000e+00 0.0000000000000000e+00
3.8383971970243329e+00 0.0000000000000000e+00 0.0000000000000000e+00
3.8385283101055441e+00 0.0000000000000000e+00 0.0000000000000000e+00
3.8386583513853187e+00 0.0000000000000000e+00 0.0000000000000000e+00
3.8387873153276537e+00 0.0000000000000000e+00 0.0000000000000000e+00
3.8389151968114863e+00 0.0000000000000000e+00 0.0000000000000000e+00
3.8390419890261716e+00 0.0000000000000000e+00 0.0000000000000000e+00
3.8391676849641265e+00 0.0000000000000000e+00 0.0000000000000000e+00
3.8392922793428901e+00 0.0000000000000000e+00 0.0000000000000000e+00
3.8394157672135441e+00 0.0000000000000000e+00 0.0000000000000000e+00
3.8395381469969001e+00 0.0000000000000000e+00 0.0000000000000000e+00
3.8396594095226191e+00 0.0000000000000000e+00 0.0000000000000000e+00
3.8397795560944350e+00 0.0000000000000000e+00 0.0000000000000000e+00
3.8398985696691916e+00 0.0000000000000000e+00 0.0000000000000000e+00
3.8400164669461008e+00 0.0000000000000000e+00 0.0000000000000000e+00
3.8401332131528032e+00 0.0000000000000000e+00 0.0000000000000000e+00
3.8402488328389506e+00 0.0000000000000000e+00 0.0000000000000000e+00
3.8403633614577259e+00 0.0000000000000000e+00 0.0000000000000000e+00
3.8404764442765922e+00 0.0000000000000000e+00 0.0000000000000000e+00
3.8405895270954589e+00 0.0000000000000000e+00 0.0000000000000000e+00


SCALARS pressure float
LOOKUP_TABLE default
3.1707227982254743e+01
3.1402329739987273e+01
3.1097431497719803e+01
3.0792360449657060e+01
3.0487034060520170e+01
3.0181404751356975e+01
2.9875443897897142e+01
2.9569133498823458e+01
2.9262463655996513e+01
2.8955445191490305e+01
2.8648087976807478e+01
2.8340393727632918e+01
2.8032364523028601e+01
2.7724000559253483e+01
2.7415294523812467e+01
2.7106246633115951e+01
2.6796860990538800e+01
2.6487153418002304e+01
2.6177140130616529e+01
2.5866815812160954e+01
2.5556174567078628e+01
2.5245217489624853e+01
2.4933947769061987e+01
2.4622367194644280e+01
2.4310480102128622e+01
2.3998295135978235e+01
2.3685813500878023e+01
2.3373040530716153e+01
2.3059979182006089e+01
2.2746632265248458e+01
2.2433005406297422e+01
2.2119103731627966e+01
2.1804929363491258e+01
2.1490483794644046e+01
2.1175767760305984e+01
2.0860785133428319e+01
2.0545540486307740e+01
2.0230037736955602e+01
1.9914280587454257e+01
1.9598272539648942e+01
1.9282017355899285e+01
1.8965518900814065e+01
1.8648780621057593e+01
1.8331806122453699e+01
1.8014599096620540e+01
1.7697163277221836e+01
1.7379502423829024e+01
1.7061620315564312e+01
1.6743520748931903e+01
1.6425207529219072e+01
1.6106684472353390e+01
1.5787955408456822e+01
1.5469024174612271e+01
1.5149894622207672e+01
1.4830570614152473e+01
1.4511056020395028e+01
1.4191354720166624e+01
1.3871470604544703e+01
1.3551407573894100e+01
1.3231169536688963e+01
1.2910760412093513e+01
1.2590184129219319e+01
1.2269444623758169e+01
1.1948545839403911e+01
1.1627491729773139e+01
1.1306286256112333e+01
1.0984933387617836e+01
1.0663437101437571e+01
1.0341801381984233e+01
1.0020030221222914e+01
9.6981276186186669e+00
9.3760975802647355e+00
9.0539441187611480e+00
8.7316712529812133e+00
8.4092830086425252e+00
8.0867834175270144e+00
7.7641765169766837e+00
7.4414663510502788e+00
7.1186569678992218e+00
6.7957524226509705e+00
6.4727567739012519e+00
6.1496740840880042e+00
5.8265084210952649e+00
5.5032638582373545e+00
5.1799444751465371e+00
4.8565543520578656e+00
4.5330975711833394e+00
4.2095782170179810e+00
3.8860003860589605e+00
3.5623681792170987e+00
3.2386856955101067e+00
2.9149570338760942e+00
2.5911862865368103e+00
2.2673775704949484e+00
1.9435349838147238e+00
1.6196626573200199e+00
1.2957646858345873e+00
9.7184515730275456e-01
6.4790840082660450e-01
3.2395765910997620e-01
0.0000000000000000e+00


SCALARS diameter float
LOOKUP_TABLE default
1.0028709842070684e+00
1.0028383733409789e+00
1.0028082025689635e+00
1.0027806879083865e+00
1.0027547319882784e+00
1.0027287352419332e+00
1.0027022927444920e+00
1.0026747618410354e+00
1.0026467038559785e+00
1.0026193550952691e+00
1.0025921599240109e+00
1.0025649224001019e+00
1.0025375530417808e+00
1.0025092780028657e+00
1.0024800834943626e+00
1.0024507100765518e+00
1.0024215577494013e+00
1.0023944471521922e+00
1.0023673662556059e+00
1.0023398203569411e+00
1.0023120807047705e+00
1.0022843536882093e+00
1.0022561066597697e+00
1.0022271549017487e+00
1.0021979511890793e+00
1.0021692540893004e+00
1.0021408919184516e+00
1.0021124782026043e+00
1.0020840489371494e+00
1.0020556415940018e+00
1.0020276749324606e+00
1.0019996781003582e+00
1.0019716481064893e+00
1.0019432358117228e+00
1.0019146412768229e+00
1.0018860310826283e+00
1.0018574032381049e+00
1.0018287567955992e+00
1.0018000921535850e+00
1.0017714127231798e+00
1.0017427694841456e+00
1.0017141061087524e+00
1.0016854226025775e+00
1.0016567201042028e+00
1.0016279990218901e+00
1.0015992596281402e+00
1.0015705022695893e+00
1.0015417275149678e+00
1.0015129359247383e+00
1.0014841271585297e+00
1.0014553021171910e+00
1.0014264606772023e+00
1.0013976032536758e+00
1.0013687305743126e+00
1.0013398427710003e+00
1.0013109399969500e+00
1.0012820225991057e+00
1.0012530910479793e+00
1.0012241454888748e+00
1.0011951862704893e+00
1.0011662138964548e+00
1.0011372285894300e+00
1.0011082305037500e+00
1.0010792200873455e+00
1.0010501976676034e+00
1.0010211634972888e+00
1.0009921179417918e+00
1.0009630612673308e+00
1.0009339937882047e+00
1.0009049158419774e+00
1.0008758277613563e+00
1.0008467298077353e+00
1.0008176222958012e+00
1.0007885055359014e+00
1.0007593799071053e+00
1.0007302456704803e+00
1.0007011032051429e+00
1.0006719528015500e+00
1.0006427947335628e+00
1.0006136295068842e+00
1.0005844571048859e+00
1.0005552778903313e+00
1.0005260922436499e+00
1.0004969006527371e+00
1.0004677034760570e+00
1.0004385003227592e+00
1.0004092917699463e+00
1.0003800779582093e+00
1.0003508604342299e+00
1.0003216385889098e+00
1.0002924131575384e+00
1.0002631828648969e+00
1.0002339493785284e+00
1.0002047127830913e+00
1.0001754736808917e+00
1.0001462322253616e+00
1.0001169886803998e+00
1.0000877433444073e+00
1.0000584967931740e+00
1.0000292494428282e+00
1.0000000003008429e+00


SCALARS iters float
LOOKUP_TABLE default
3.0000000000000000e+00
3.0000000000000000e+00
3.0000000000000000e+00
3.0000000000000000e+00
3.0000000000000000e+00
3.0000000000000000e+00
3.0000000000000000e+00
3.0000000000000000e+00
3.0000000000000000e+00
3.0000000000000000e+00
3.0000000000000000e+00
3.0000000000000000e+00
3.0000000000000000e+00
3.0000000000000000e+00
3.0000000000000000e+00
3.0000000000000000e+00
3.0000000000000000e+00
3.0000000000000000e+00
3.0000000000000000e+00
3.0000000000000000e+00
3.0000000000000000e+00
3.0000000000000000e+00
3.0000000000000000e+00
3.0000000000000000e+00
3.0000000000000000e+00
3.0000000000000000e+00
3.0000000000000000e+00
3.0000000000000000e+00
3.0000000000000000e+00
3.0000000000000000e+00
3.0000000000000000e+00
3.0000000000000000e+00
3.0000000000000000e+00
3.0000000000000000e+00
3.0000000000000000e+00
3.0000000000000000e+00
3.0000000000000000e+00
3.0000000000000000e+00
3.0000000000000000e+00
3.0000000000000000e+00
3.0000000000000000e+00
3.0000000000000000e+00
3.0000000000000000e+00
3.0000000000000000e+00
3.0000000000000000e+00
3.0000000000000000e+00
3.0000000000000000e+00
3.0000000000000000e+00
3.0000000000000000e+00
3.0000000000000000e+00
3.0000000000000000e+00
3.0000000000000000e+00
3.0000000000000000e+00
3.0000000000000000e+00
3.0000000000000000e+00
3.0000000000000000e+00
3.0000000000000000e+00
3.0000000000000000e+00
3.0000000000000000e+00
3.0000000000000000e+00
3.0000000000000000e+00
3.0000000000000000e+00
3.0000000000000000e+00
3.0000000000000000e+00
3.0000000000000000e+00
3.0000000000000000e+00
3.0000000000000000e+00
3.0000000000000000e+00
3.0000000000000000e+00
3.0000000000000000e+00
3.0000000000000000e+00
3.0000000000000000e+00
3.0000000000000000e+00
3.0000000000000000e+00
3.0000000000000000e+00
3.0000000000000000e+00
3.0000000000000000e+00
3.0000000000000000e+00
3.0000000000000000e+00
3.0000000000000000e+00
3.0000000000000000e+00
3.0000000000000000e+00
3.0000000000000000e+00
3.0000000000000000e+00
3.0000000000000000e+00
3.0000000000000000e+00
3.0000000000000000e+00
3.0000000000000000e+00
3.0000000000000000e+00
3.0000000000000000e+00
3.0000000000000000e+00
3.0000000000000000e+00
3.0000000000000000e+00
3.0000000000000000e+00
3.0000000000000000e+00
3.0000000000000000e+00
3.0000000000000000e+00
3.0000000000000000e+00
3.0000000000000000e+00
3.0000000000000000e+00
3.0000000000000000e+00


