# vtk DataFile Version 2.0

ASCII

DATASET UNSTRUCTURED_GRID

POINTS 101 float

0.0000000000000000e+00 0.0000000000000000e+00 0.0000000000000000e+00
1.0000000000000001e-01 0.0000000000000000e+00 0.0000000000000000e+00
2.0000000000000001e-01 0.0000000000000000e+00 0.0000000000000000e+00
3.0000000000000004e-01 0.0000000000000000e+00 0.0000000000000000e+00
4.0000000000000002e-01 0.0000000000000000e+00 0.0000000000000000e+00
5.0000000000000000e-01 0.0000000000000000e+00 0.0000000000000000e+00
6.0000000000000009e-01 0.0000000000000000e+00 0.0000000000000000e+00
7.0000000000000007e-01 0.0000000000000000e+00 0.0000000000000000e+00
8.0000000000000004e-01 0.0000000000000000e+00 0.0000000000000000e+00
9.0000000000000002e-01 0.0000000000000000e+00 0.0000000000000000e+00
1.0000000000000000e+00 0.0000000000000000e+00 0.0000000000000000e+00
1.1000000000000001e+00 0.0000000000000000e+00 0.0000000000000000e+00
1.2000000000000002e+00 0.0000000000000000e+00 0.0000000000000000e+00
1.3000000000000000e+00 0.0000000000000000e+00 0.0000000000000000e+00
1.4000000000000001e+00 0.0000000000000000e+00 0.0000000000000000e+00
1.5000000000000000e+00 0.0000000000000000e+00 0.0000000000000000e+00
1.6000000000000001e+00 0.0000000000000000e+00 0.0000000000000000e+00
1.7000000000000002e+00 0.0000000000000000e+00 0.0000000000000000e+00
1.8000000000000000e+00 0.0000000000000000e+00 0.0000000000000000e+00
1.9000000000000001e+00 0.0000000000000000e+00 0.0000000000000000e+00
2.0000000000000000e+00 0.0000000000000000e+00 0.0000000000000000e+00
2.1000000000000001e+00 0.0000000000000000e+00 0.0000000000000000e+00
2.2000000000000002e+00 0.0000000000000000e+00 0.0000000000000000e+00
2.3000000000000003e+00 0.0000000000000000e+00 0.0000000000000000e+00
2.4000000000000004e+00 0.0000000000000000e+00 0.0000000000000000e+00
2.5000000000000000e+00 0.0000000000000000e+00 0.0000000000000000e+00
2.6000000000000001e+00 0.0000000000000000e+00 0.0000000000000000e+00
2.7000000000000002e+00 0.0000000000000000e+00 0.0000000000000000e+00
2.8000000000000003e+00 0.0000000000000000e+00 0.0000000000000000e+00
2.9000000000000004e+00 0.0000000000000000e+00 0.0000000000000000e+00
3.0000000000000000e+00 0.0000000000000000e+00 0.0000000000000000e+00
3.1000000000000001e+00 0.0000000000000000e+00 0.0000000000000000e+00
3.2000000000000002e+00 0.0000000000000000e+00 0.0000000000000000e+00
3.3000000000000003e+00 0.0000000000000000e+00 0.0000000000000000e+00
3.4000000000000004e+00 0.0000000000000000e+00 0.0000000000000000e+00
3.5000000000000000e+00 0.0000000000000000e+00 0.0000000000000000e+00
3.6000000000000001e+00 0.0000000000000000e+00 0.0000000000000000e+00
3.7000000000000002e+00 0.0000000000000000e+00 0.0000000000000000e+00
3.8000000000000003e+00 0.0000000000000000e+00 0.0000000000000000e+00
3.9000000000000004e+00 0.0000000000000000e+00 0.0000000000000000e+00
4.0000000000000000e+00 0.0000000000000000e+00 0.0000000000000000e+00
4.1000000000000005e+00 0.0000000000000000e+00 0.0000000000000000e+00
4.2000000000000002e+00 0.0000000000000000e+00 0.0000000000000000e+00
4.2999999999999998e+00 0.0000000000000000e+00 0.0000000000000000e+00
4.4000000000000004e+00 0.0000000000000000e+00 0.0000000000000000e+00
4.5000000000000000e+00 0.0000000000000000e+00 0.0000000000000000e+00
4.6000000000000005e+00 0.0000000000000000e+00 0.0000000000000000e+00
4.7000000000000002e+00 0.0000000000000000e+00 0.0000000000000000e+00
4.8000000000000007e+00 0.0000000000000000e+00 0.0000000000000000e+00
4.9000000000000004e+00 0.0000000000000000e+00 0.0000000000000000e+00
5.0000000000000000e+00 0.0000000000000000e+00 0.0000000000000000e+00
5.1000000000000005e+00 0.0000000000000000e+00 0.0000000000000000e+00
5.2000000000000002e+00 0.0000000000000000e+00 0.0000000000000000e+00
5.3000000000000007e+00 0.0000000000000000e+00 0.0000000000000000e+00
5.4000000000000004e+00 0.0000000000000000e+00 0.0000000000000000e+00
5.5000000000000000e+00 0.0000000000000000e+00 0.0000000000000000e+00
5.6000000000000005e+00 0.0000000000000000e+00 0.0000000000000000e+00
5.7000000000000002e+00 0.0000000000000000e+00 0.0000000000000000e+00
5.8000000000000007e+00 0.0000000000000000e+00 0.0000000000000000e+00
5.9000000000000004e+00 0.0000000000000000e+00 0.0000000000000000e+00
6.0000000000000000e+00 0.0000000000000000e+00 0.0000000000000000e+00
6.1000000000000005e+00 0.0000000000000000e+00 0.0000000000000000e+00
6.2000000000000002e+00 0.0000000000000000e+00 0.0000000000000000e+00
6.3000000000000007e+00 0.0000000000000000e+00 0.0000000000000000e+00
6.4000000000000004e+00 0.0000000000000000e+00 0.0000000000000000e+00
6.5000000000000000e+00 0.0000000000000000e+00 0.0000000000000000e+00
6.6000000000000005e+00 0.0000000000000000e+00 0.0000000000000000e+00
6.7000000000000002e+00 0.0000000000000000e+00 0.0000000000000000e+00
6.8000000000000007e+00 0.0000000000000000e+00 0.0000000000000000e+00
6.9000000000000004e+00 0.0000000000000000e+00 0.0000000000000000e+00
7.0000000000000000e+00 0.0000000000000000e+00 0.0000000000000000e+00
7.1000000000000005e+00 0.0000000000000000e+00 0.0000000000000000e+00
7.2000000000000002e+00 0.0000000000000000e+00 0.0000000000000000e+00
7.3000000000000007e+00 0.0000000000000000e+00 0.0000000000000000e+00
7.4000000000000004e+00 0.0000000000000000e+00 0.0000000000000000e+00
7.5000000000000000e+00 0.0000000000000000e+00 0.0000000000000000e+00
7.6000000000000005e+00 0.0000000000000000e+00 0.0000000000000000e+00
7.7000000000000002e+00 0.0000000000000000e+00 0.0000000000000000e+00
7.8000000000000007e+00 0.0000000000000000e+00 0.0000000000000000e+00
7.9000000000000004e+00 0.0000000000000000e+00 0.0000000000000000e+00
8.0000000000000000e+00 0.0000000000000000e+00 0.0000000000000000e+00
8.0999999999999996e+00 0.0000000000000000e+00 0.0000000000000000e+00
8.2000000000000011e+00 0.0000000000000000e+00 0.0000000000000000e+00
8.3000000000000007e+00 0.0000000000000000e+00 0.0000000000000000e+00
8.4000000000000004e+00 0.0000000000000000e+00 0.0000000000000000e+00
8.5000000000000000e+00 0.0000000000000000e+00 0.0000000000000000e+00
8.5999999999999996e+00 0.0000000000000000e+00 0.0000000000000000e+00
8.7000000000000011e+00 0.0000000000000000e+00 0.0000000000000000e+00
8.8000000000000007e+00 0.0000000000000000e+00 0.0000000000000000e+00
8.9000000000000004e+00 0.0000000000000000e+00 0.0000000000000000e+00
9.0000000000000000e+00 0.0000000000000000e+00 0.0000000000000000e+00
9.0999999999999996e+00 0.0000000000000000e+00 0.0000000000000000e+00
9.2000000000000011e+00 0.0000000000000000e+00 0.0000000000000000e+00
9.3000000000000007e+00 0.0000000000000000e+00 0.0000000000000000e+00
9.4000000000000004e+00 0.0000000000000000e+00 0.0000000000000000e+00
9.5000000000000000e+00 0.0000000000000000e+00 0.0000000000000000e+00
9.6000000000000014e+00 0.0000000000000000e+00 0.0000000000000000e+00
9.7000000000000011e+00 0.0000000000000000e+00 0.0000000000000000e+00
9.8000000000000007e+00 0.0000000000000000e+00 0.0000000000000000e+00
9.9000000000000004e+00 0.0000000000000000e+00 0.0000000000000000e+00
1.0000000000000000e+01 0.0000000000000000e+00 0.0000000000000000e+00

POINT_DATA 101

VECTORS velocity float
2.9324113208151692e+00 0.0000000000000000e+00 0.0000000000000000e+00
2.9324192462294185e+00 0.0000000000000000e+00 0.0000000000000000e+00
2.9324627104000358e+00 0.0000000000000000e+00 0.0000000000000000e+00
2.9325207726714133e+00 0.0000000000000000e+00 0.0000000000000000e+00
2.9325847297609062e+00 0.0000000000000000e+00 0.0000000000000000e+00
2.9326515185501019e+00 0.0000000000000000e+00 0.0000000000000000e+00
2.9327215225314429e+00 0.0000000000000000e+00 0.0000000000000000e+00
2.9327952880189598e+00 0.0000000000000000e+00 0.0000000000000000e+00
2.9328694778713071e+00 0.0000000000000000e+00 0.0000000000000000e+00
2.9329391398249349e+00 0.0000000000000000e+00 0.0000000000000000e+00
2.9330049864932266e+00 0.0000000000000000e+00 0.0000000000000000e+00
2.9330687920220258e+00 0.0000000000000000e+00 0.0000000000000000e+00
2.9331306899536842e+00 0.0000000000000000e+00 0.0000000000000000e+00
2.9331915960215502e+00 0.0000000000000000e+00 0.0000000000000000e+00
2.9332528917886296e+00 0.0000000000000000e+00 0.0000000000000000e+00
2.9333134945942279e+00 0.0000000000000000e+00 0.0000000000000000e+00
2.9333737935614774e+00 0.0000000000000000e+00 0.0000000000000000e+00
2.9334347371391556e+00 0.0000000000000000e+00 0.0000000000000000e+00
2.9334935813823089e+00 0.0000000000000000e+00 0.0000000000000000e+00
2.9335483750869296e+00 0.0000000000000000e+00 0.0000000000000000e+00
2.9335997549523518e+00 0.0000000000000000e+00 0.0000000000000000e+00
2.9336487591860436e+00 0.0000000000000000e+00 0.0000000000000000e+00
2.9336957927059504e+00 0.0000000000000000e+00 0.0000000000000000e+00
2.9337420235321283e+00 0.0000000000000000e+00 0.0000000000000000e+00
2.9337887275744081e+00 0.0000000000000000e+00 0.0000000000000000e+00
2.9338349401726487e+00 0.0000000000000000e+00 0.0000000000000000e+00
2.9338789769615299e+00 0.0000000000000000e+00 0.0000000000000000e+00
2.9339211117220234e+00 0.0000000000000000e+00 0.0000000000000000e+00
2.9339616264750097e+00 0.0000000000000000e+00 0.0000000000000000e+00
2.9340000978204182e+00 0.0000000000000000e+00 0.0000000000000000e+00
2.9340360992998145e+00 0.0000000000000000e+00 0.0000000000000000e+00
2.9340699042852276e+00 0.0000000000000000e+00 0.0000000000000000e+00
2.9341017926046011e+00 0.0000000000000000e+00 0.0000000000000000e+00
2.9341323821895404e+00 0.0000000000000000e+00 0.0000000000000000e+00
2.9341616972799081e+00 0.0000000000000000e+00 0.0000000000000000e+00
2.9341895031688634e+00 0.0000000000000000e+00 0.0000000000000000e+00
2.9342156955726635e+00 0.0000000000000000e+00 0.0000000000000000e+00
2.9342402246999777e+00 0.0000000000000000e+00 0.0000000000000000e+00
2.9342630892842045e+00 0.0000000000000000e+00 0.0000000000000000e+00
2.9342842465862655e+00 0.0000000000000000e+00 0.0000000000000000e+00
2.9343037865811206e+00 0.0000000000000000e+00 0.0000000000000000e+00
2.9343217495120348e+00 0.0000000000000000e+00 0.0000000000000000e+00
2.9343381467654983e+00 0.0000000000000000e+00 0.0000000000000000e+00
2.9343529802493515e+00 0.0000000000000000e+00 0.0000000000000000e+00
2.9343662482837805e+00 0.0000000000000000e+00 0.0000000000000000e+00
2.9343779498927391e+00 0.0000000000000000e+00 0.0000000000000000e+00
2.9343880832099885e+00 0.0000000000000000e+00 0.0000000000000000e+00
2.9343966439450417e+00 0.0000000000000000e+00 0.0000000000000000e+00
2.9344036284146111e+00 0.0000000000000000e+00 0.0000000000000000e+00
2.9344090337384112e+00 0.0000000000000000e+00 0.0000000000000000e+00
2.9344128575565041e+00 0.0000000000000000e+00 0.0000000000000000e+00
2.9344150969895630e+00 0.0000000000000000e+00 0.0000000000000000e+00
2.9344157496047574e+00 0.0000000000000000e+00 0.0000000000000000e+00
2.9344148128387979e+00 0.0000000000000000e+00 0.0000000000000000e+00
2.9344122841027982e+00 0.0000000000000000e+00 0.0000000000000000e+00
2.9344081608258428e+00 0.0000000000000000e+00 0.0000000000000000e+00
2.9344024400032658e+00 0.0000000000000000e+00 0.0000000000000000e+00
2.9343951195364610e+00 0.0000000000000000e+00 0.0000000000000000e+00
2.9343861975638053e+00 0.0000000000000000e+00 0.0000000000000000e+00
2.9343756719739575e+00 0.0000000000000000e+00 0.0000000000000000e+00
2.9343635406572917e+00 0.0000000000000000e+00 0.0000000000000000e+00
2.9343498010303954e+00 0.0000000000000000e+00 0.0000000000000000e+00
2.9343344505607516e+00 0.0000000000000000e+00 0.0000000000000000e+00
2.9343174872520255e+00 0.0000000000000000e+00 0.0000000000000000e+00
2.9342989092166447e+00 0.0000000000000000e+00 0.0000000000000000e+00
2.9342787145865392e+00 0.0000000000000000e+00 0.0000000000000000e+00
2.9342569014481987e+00 0.0000000000000000e+00 0.0000000000000000e+00
2.9342334680745057e+00 0.0000000000000000e+00 0.0000000000000000e+00
2.9342084128000683e+00 0.0000000000000000e+00 0.0000000000000000e+00
2.9341817339010894e+00 0.0000000000000000e+00 0.0000000000000000e+00
2.9341534295989704e+00 0.0000000000000000e+00 0.0000000000000000e+00
2.9341234980222670e+00 0.0000000000000000e+00 0.0000000000000000e+00
2.9340919372086578e+00 0.0000000000000000e+00 0.0000000000000000e+00
2.9340587457005611e+00 0.0000000000000000e+00 0.0000000000000000e+00
2.9340239219631155e+00 0.0000000000000000e+00 0.0000000000000000e+00
2.9339874646541273e+00 0.0000000000000000e+00 0.0000000000000000e+00
2.9339493729360462e+00 0.0000000000000000e+00 0.0000000000000000e+00
2.9339096452167297e+00 0.0000000000000000e+00 0.0000000000000000e+00
2.9338682802927800e+00 0.0000000000000000e+00 0.0000000000000000e+00
2.9338252764405608e+00 0.0000000000000000e+00 0.0000000000000000e+00
2.9337806322524309e+00 0.0000000000000000e+00 0.0000000000000000e+00
2.9337343467007435e+00 0.0000000000000000e+00 0.0000000000000000e+00
2.9336864186331204e+00 0.0000000000000000e+00 0.0000000000000000e+00
2.9336368482914708e+00 0.0000000000000000e+00 0.0000000000000000e+00
2.9335856341984408e+00 0.0000000000000000e+00 0.0000000000000000e+00
2.9335327733561973e+00 0.0000000000000000e+00 0.0000000000000000e+00
2.9334782655642244e+00 0.0000000000000000e+00 0.0000000000000000e+00
2.9334221107676033e+00 0.0000000000000000e+00 0.0000000000000000e+00
2.9333643073034517e+00 0.0000000000000000e+00 0.0000000000000000e+00
2.9333048554707917e+00 0.0000000000000000e+00 0.0000000000000000e+00
2.9332437562851617e+00 0.0000000000000000e+00 0.0000000000000000e+00
2.9331810052429534e+00 0.0000000000000000e+00 0.0000000000000000e+00
2.9331166055674474e+00 0.0000000000000000e+00 0.0000000000000000e+00
2.9330505482362459e+00 0.0000000000000000e+00 0.0000000000000000e+00
2.9329828557043323e+00 0.0000000000000000e+00 0.0000000000000000e+00
2.9329134739849527e+00 0.0000000000000000e+00 0.0000000000000000e+00
2.9328425207386410e+00 0.0000000000000000e+00 0.0000000000000000e+00
2.9327697375144774e+00 0.0000000000000000e+00 0.0000000000000000e+00
2.9326956827662003e+00 0.0000000000000000e+00 0.0000000000000000e+00
2.9326191651575959e+00 0.0000000000000000e+00 0.0000000000000000e+00
2.9325426475489915e+00 0.0000000000000000e+00 0.0000000000000000e+00


SCALARS pressure float
LOOKUP_TABLE default
-2.9447134623117801e+01
-2.9159831821616937e+01
-2.8872529020116069e+01
-2.8585082539464558e+01
-2.8297447220823010e+01
-2.8009604629103016e+01
-2.7721550583337724e+01
-2.7433290754772738e+01
-2.7144829813753432e+01
-2.6856163359452907e+01
-2.6567281000036015e+01
-2.6278190210912392e+01
-2.5988900236201228e+01
-2.5699414165735273e+01
-2.5409735510152395e+01
-2.5119869404335017e+01
-2.4829812871859485e+01
-2.4539568027210255e+01
-2.4249142834791655e+01
-2.3958533105350650e+01
-2.3667735047560459e+01
-2.3376752069656671e+01
-2.3085587292590798e+01
-2.2794241227639951e+01
-2.2502718227090462e+01
-2.2211026393281962e+01
-2.1919168079604610e+01
-2.1627140137104643e+01
-2.1334945955227727e+01
-2.1042588375600594e+01
-2.0750068090587401e+01
-2.0457385169012912e+01
-2.0164542020771048e+01
-1.9871540498862672e+01
-1.9578384203638777e+01
-1.9285075192031965e+01
-1.8991614880943807e+01
-1.8698005177048795e+01
-1.8404248134171592e+01
-1.8110345925596839e+01
-1.7816300690283825e+01
-1.7522115169900680e+01
-1.7227791841884049e+01
-1.6933333073261320e+01
-1.6638741195686414e+01
-1.6344018526141831e+01
-1.6049167383351467e+01
-1.5754190085489151e+01
-1.5459088940987632e+01
-1.5163866258475398e+01
-1.4868524346597512e+01
-1.4573065514854065e+01
-1.4277492069705534e+01
-1.3981806318040615e+01
-1.3686010564880707e+01
-1.3390107113321228e+01
-1.3094098265028347e+01
-1.2797986318176848e+01
-1.2501773573103137e+01
-1.2205462329044899e+01
-1.1909054882775804e+01
-1.1612553529635408e+01
-1.1315960561570538e+01
-1.1019278268126076e+01
-1.0722508938752615e+01
-1.0425654861351878e+01
-1.0128718322150776e+01
-9.8317016053967023e+00
-9.5346069942393754e+00
-9.2374367702096425e+00
-8.9401932128833099e+00
-8.6428785997307234e+00
-8.3454952058354372e+00
-8.0480453034428727e+00
-7.7505311639481347e+00
-7.4529550561011275e+00
-7.1553192465774522e+00
-6.8576260023118589e+00
-6.5598775849393149e+00
-6.2620762560490046e+00
-5.9642242710894919e+00
-5.6663238839105849e+00
-5.3683773477112293e+00
-5.0703869121083374e+00
-4.7723548290624835e+00
-4.4742833413036607e+00
-4.1761746855419801e+00
-3.8780311044940778e+00
-3.5798548415204534e+00
-3.2816481260852344e+00
-2.9834131932462178e+00
-2.6851522767886129e+00
-2.3868675920268578e+00
-2.0885613744797413e+00
-1.7902358196624453e+00
-1.4918932136606298e+00
-1.1935356136908222e+00
-8.9516556913803325e-01
-5.9678457362922854e-01
-2.9839631882298889e-01
0.0000000000000000e+00


SCALARS diameter float
LOOKUP_TABLE default
9.9734533736879272e-01
9.9737492850691167e-01
9.9740287750276324e-01
9.9742953364297149e-01
9.9745526504412685e-01
9.9748099709867943e-01
9.9750531359435535e-01
9.9752845678799740e-01
9.9755123745898711e-01
9.9757690150411282e-01
9.9760367609831679e-01
9.9763049169645035e-01
9.9765756936225436e-01
9.9768477288911128e-01
9.9771086226568284e-01
9.9773678554232559e-01
9.9776252395660892e-01
9.9778708321163168e-01
9.9781226403660961e-01
9.9783889570601447e-01
9.9786595074268924e-01
9.9789307129552740e-01
9.9792000339572129e-01
9.9794658644272505e-01
9.9797202515623229e-01
9.9799736973086872e-01
9.9802357219835691e-01
9.9804973542042397e-01
9.9807591676545315e-01
9.9810215876185826e-01
9.9812890060917148e-01
9.9815565146486596e-01
9.9818248757552430e-01
9.9820902044505833e-01
9.9823539592897381e-01
9.9826178755804917e-01
9.9828819595361251e-01
9.9831462198355114e-01
9.9834106469439654e-01
9.9836752531150641e-01
9.9839399297179077e-01
9.9842047041874138e-01
9.9844696077254635e-01
9.9847346443491880e-01
9.9849998151647801e-01
9.9852651140082260e-01
9.9855305317182130e-01
9.9857960814294922e-01
9.9860617595493917e-01
9.9863275645175653e-01
9.9865934896267028e-01
9.9868595362332946e-01
9.9871257009659409e-01
9.9873919810339995e-01
9.9876583759347459e-01
9.9879248824619526e-01
9.9881915019166523e-01
9.9884582307495640e-01
9.9887250638540592e-01
9.9889919996796273e-01
9.9892590357993238e-01
9.9895261716900874e-01
9.9897934077700667e-01
9.9900607396134644e-01
9.9903281653349629e-01
9.9905956820390840e-01
9.9908632883235360e-01
9.9911309813644755e-01
9.9913987586223807e-01
9.9916666180799107e-01
9.9919345582535180e-01
9.9922025777975987e-01
9.9924706760623472e-01
9.9927388502310632e-01
9.9930070969038920e-01
9.9932754152986569e-01
9.9935437990347142e-01
9.9938122485752934e-01
9.9940807622161254e-01
9.9943493379654813e-01
9.9946179756107878e-01
9.9948866703151606e-01
9.9951554221736227e-01
9.9954242228526036e-01
9.9956930697673896e-01
9.9959619748658290e-01
9.9962309315837605e-01
9.9964999286878375e-01
9.9967689764199730e-01
9.9970380582766272e-01
9.9973071723953555e-01
9.9975763228196135e-01
9.9978455203255812e-01
9.9981147396139314e-01
9.9983839890206627e-01
9.9986532695821517e-01
9.9989225738127352e-01
9.9991919011035690e-01
9.9994612485764900e-01
9.9997306249866358e-01
1.0000000049890372e+00


SCALARS iters float
LOOKUP_TABLE default
4.0000000000000000e+00
4.0000000000000000e+00
4.0000000000000000e+00
4.0000000000000000e+00
4.0000000000000000e+00
4.0000000000000000e+00
4.0000000000000000e+00
4.0000000000000000e+00
4.0000000000000000e+00
4.0000000000000000e+00
4.0000000000000000e+00
4.0000000000000000e+00
4.0000000000000000e+00
4.0000000000000000e+00
4.0000000000000000e+00
4.0000000000000000e+00
4.0000000000000000e+00
4.0000000000000000e+00
4.0000000000000000e+00
4.0000000000000000e+00
4.0000000000000000e+00
4.0000000000000000e+00
4.0000000000000000e+00
4.0000000000000000e+00
4.0000000000000000e+00
4.0000000000000000e+00
4.0000000000000000e+00
4.0000000000000000e+00
4.0000000000000000e+00
4.0000000000000000e+00
4.0000000000000000e+00
4.0000000000000000e+00
4.0000000000000000e+00
4.0000000000000000e+00
4.0000000000000000e+00
4.0000000000000000e+00
4.0000000000000000e+00
4.0000000000000000e+00
4.0000000000000000e+00
4.0000000000000000e+00
4.0000000000000000e+00
4.0000000000000000e+00
4.0000000000000000e+00
4.0000000000000000e+00
4.0000000000000000e+00
4.0000000000000000e+00
4.0000000000000000e+00
4.0000000000000000e+00
4.0000000000000000e+00
4.0000000000000000e+00
4.0000000000000000e+00
4.0000000000000000e+00
4.0000000000000000e+00
4.0000000000000000e+00
4.0000000000000000e+00
4.0000000000000000e+00
4.0000000000000000e+00
4.0000000000000000e+00
4.0000000000000000e+00
4.0000000000000000e+00
4.0000000000000000e+00
4.0000000000000000e+00
4.0000000000000000e+00
4.0000000000000000e+00
4.0000000000000000e+00
4.0000000000000000e+00
4.0000000000000000e+00
4.0000000000000000e+00
4.0000000000000000e+00
4.0000000000000000e+00
4.0000000000000000e+00
4.0000000000000000e+00
4.0000000000000000e+00
4.0000000000000000e+00
4.0000000000000000e+00
4.0000000000000000e+00
4.0000000000000000e+00
4.0000000000000000e+00
4.0000000000000000e+00
4.0000000000000000e+00
4.0000000000000000e+00
4.0000000000000000e+00
4.0000000000000000e+00
4.0000000000000000e+00
4.0000000000000000e+00
4.0000000000000000e+00
4.0000000000000000e+00
4.0000000000000000e+00
4.0000000000000000e+00
4.0000000000000000e+00
4.0000000000000000e+00
4.0000000000000000e+00
4.0000000000000000e+00
4.0000000000000000e+00
4.0000000000000000e+00
4.0000000000000000e+00
4.0000000000000000e+00
4.0000000000000000e+00
4.0000000000000000e+00
4.0000000000000000e+00
4.0000000000000000e+00


