# vtk DataFile Version 2.0

ASCII

DATASET UNSTRUCTURED_GRID

POINTS 101 float

0.0000000000000000e+00 0.0000000000000000e+00 0.0000000000000000e+00
1.0000000000000001e-01 0.0000000000000000e+00 0.0000000000000000e+00
2.0000000000000001e-01 0.0000000000000000e+00 0.0000000000000000e+00
3.0000000000000004e-01 0.0000000000000000e+00 0.0000000000000000e+00
4.0000000000000002e-01 0.0000000000000000e+00 0.0000000000000000e+00
5.0000000000000000e-01 0.0000000000000000e+00 0.0000000000000000e+00
6.0000000000000009e-01 0.0000000000000000e+00 0.0000000000000000e+00
7.0000000000000007e-01 0.0000000000000000e+00 0.0000000000000000e+00
8.0000000000000004e-01 0.0000000000000000e+00 0.0000000000000000e+00
9.0000000000000002e-01 0.0000000000000000e+00 0.0000000000000000e+00
1.0000000000000000e+00 0.0000000000000000e+00 0.0000000000000000e+00
1.1000000000000001e+00 0.0000000000000000e+00 0.0000000000000000e+00
1.2000000000000002e+00 0.0000000000000000e+00 0.0000000000000000e+00
1.3000000000000000e+00 0.0000000000000000e+00 0.0000000000000000e+00
1.4000000000000001e+00 0.0000000000000000e+00 0.0000000000000000e+00
1.5000000000000000e+00 0.0000000000000000e+00 0.0000000000000000e+00
1.6000000000000001e+00 0.0000000000000000e+00 0.0000000000000000e+00
1.7000000000000002e+00 0.0000000000000000e+00 0.0000000000000000e+00
1.8000000000000000e+00 0.0000000000000000e+00 0.0000000000000000e+00
1.9000000000000001e+00 0.0000000000000000e+00 0.0000000000000000e+00
2.0000000000000000e+00 0.0000000000000000e+00 0.0000000000000000e+00
2.1000000000000001e+00 0.0000000000000000e+00 0.0000000000000000e+00
2.2000000000000002e+00 0.0000000000000000e+00 0.0000000000000000e+00
2.3000000000000003e+00 0.0000000000000000e+00 0.0000000000000000e+00
2.4000000000000004e+00 0.0000000000000000e+00 0.0000000000000000e+00
2.5000000000000000e+00 0.0000000000000000e+00 0.0000000000000000e+00
2.6000000000000001e+00 0.0000000000000000e+00 0.0000000000000000e+00
2.7000000000000002e+00 0.0000000000000000e+00 0.0000000000000000e+00
2.8000000000000003e+00 0.0000000000000000e+00 0.0000000000000000e+00
2.9000000000000004e+00 0.0000000000000000e+00 0.0000000000000000e+00
3.0000000000000000e+00 0.0000000000000000e+00 0.0000000000000000e+00
3.1000000000000001e+00 0.0000000000000000e+00 0.0000000000000000e+00
3.2000000000000002e+00 0.0000000000000000e+00 0.0000000000000000e+00
3.3000000000000003e+00 0.0000000000000000e+00 0.0000000000000000e+00
3.4000000000000004e+00 0.0000000000000000e+00 0.0000000000000000e+00
3.5000000000000000e+00 0.0000000000000000e+00 0.0000000000000000e+00
3.6000000000000001e+00 0.0000000000000000e+00 0.0000000000000000e+00
3.7000000000000002e+00 0.0000000000000000e+00 0.0000000000000000e+00
3.8000000000000003e+00 0.0000000000000000e+00 0.0000000000000000e+00
3.9000000000000004e+00 0.0000000000000000e+00 0.0000000000000000e+00
4.0000000000000000e+00 0.0000000000000000e+00 0.0000000000000000e+00
4.1000000000000005e+00 0.0000000000000000e+00 0.0000000000000000e+00
4.2000000000000002e+00 0.0000000000000000e+00 0.0000000000000000e+00
4.2999999999999998e+00 0.0000000000000000e+00 0.0000000000000000e+00
4.4000000000000004e+00 0.0000000000000000e+00 0.0000000000000000e+00
4.5000000000000000e+00 0.0000000000000000e+00 0.0000000000000000e+00
4.6000000000000005e+00 0.0000000000000000e+00 0.0000000000000000e+00
4.7000000000000002e+00 0.0000000000000000e+00 0.0000000000000000e+00
4.8000000000000007e+00 0.0000000000000000e+00 0.0000000000000000e+00
4.9000000000000004e+00 0.0000000000000000e+00 0.0000000000000000e+00
5.0000000000000000e+00 0.0000000000000000e+00 0.0000000000000000e+00
5.1000000000000005e+00 0.0000000000000000e+00 0.0000000000000000e+00
5.2000000000000002e+00 0.0000000000000000e+00 0.0000000000000000e+00
5.3000000000000007e+00 0.0000000000000000e+00 0.0000000000000000e+00
5.4000000000000004e+00 0.0000000000000000e+00 0.0000000000000000e+00
5.5000000000000000e+00 0.0000000000000000e+00 0.0000000000000000e+00
5.6000000000000005e+00 0.0000000000000000e+00 0.0000000000000000e+00
5.7000000000000002e+00 0.0000000000000000e+00 0.0000000000000000e+00
5.8000000000000007e+00 0.0000000000000000e+00 0.0000000000000000e+00
5.9000000000000004e+00 0.0000000000000000e+00 0.0000000000000000e+00
6.0000000000000000e+00 0.0000000000000000e+00 0.0000000000000000e+00
6.1000000000000005e+00 0.0000000000000000e+00 0.0000000000000000e+00
6.2000000000000002e+00 0.0000000000000000e+00 0.0000000000000000e+00
6.3000000000000007e+00 0.0000000000000000e+00 0.0000000000000000e+00
6.4000000000000004e+00 0.0000000000000000e+00 0.0000000000000000e+00
6.5000000000000000e+00 0.0000000000000000e+00 0.0000000000000000e+00
6.6000000000000005e+00 0.0000000000000000e+00 0.0000000000000000e+00
6.7000000000000002e+00 0.0000000000000000e+00 0.0000000000000000e+00
6.8000000000000007e+00 0.0000000000000000e+00 0.0000000000000000e+00
6.9000000000000004e+00 0.0000000000000000e+00 0.0000000000000000e+00
7.0000000000000000e+00 0.0000000000000000e+00 0.0000000000000000e+00
7.1000000000000005e+00 0.0000000000000000e+00 0.0000000000000000e+00
7.2000000000000002e+00 0.0000000000000000e+00 0.0000000000000000e+00
7.3000000000000007e+00 0.0000000000000000e+00 0.0000000000000000e+00
7.4000000000000004e+00 0.0000000000000000e+00 0.0000000000000000e+00
7.5000000000000000e+00 0.0000000000000000e+00 0.0000000000000000e+00
7.6000000000000005e+00 0.0000000000000000e+00 0.0000000000000000e+00
7.7000000000000002e+00 0.0000000000000000e+00 0.0000000000000000e+00
7.8000000000000007e+00 0.0000000000000000e+00 0.0000000000000000e+00
7.9000000000000004e+00 0.0000000000000000e+00 0.0000000000000000e+00
8.0000000000000000e+00 0.0000000000000000e+00 0.0000000000000000e+00
8.0999999999999996e+00 0.0000000000000000e+00 0.0000000000000000e+00
8.2000000000000011e+00 0.0000000000000000e+00 0.0000000000000000e+00
8.3000000000000007e+00 0.0000000000000000e+00 0.0000000000000000e+00
8.4000000000000004e+00 0.0000000000000000e+00 0.0000000000000000e+00
8.5000000000000000e+00 0.0000000000000000e+00 0.0000000000000000e+00
8.5999999999999996e+00 0.0000000000000000e+00 0.0000000000000000e+00
8.7000000000000011e+00 0.0000000000000000e+00 0.0000000000000000e+00
8.8000000000000007e+00 0.0000000000000000e+00 0.0000000000000000e+00
8.9000000000000004e+00 0.0000000000000000e+00 0.0000000000000000e+00
9.0000000000000000e+00 0.0000000000000000e+00 0.0000000000000000e+00
9.0999999999999996e+00 0.0000000000000000e+00 0.0000000000000000e+00
9.2000000000000011e+00 0.0000000000000000e+00 0.0000000000000000e+00
9.3000000000000007e+00 0.0000000000000000e+00 0.0000000000000000e+00
9.4000000000000004e+00 0.0000000000000000e+00 0.0000000000000000e+00
9.5000000000000000e+00 0.0000000000000000e+00 0.0000000000000000e+00
9.6000000000000014e+00 0.0000000000000000e+00 0.0000000000000000e+00
9.7000000000000011e+00 0.0000000000000000e+00 0.0000000000000000e+00
9.8000000000000007e+00 0.0000000000000000e+00 0.0000000000000000e+00
9.9000000000000004e+00 0.0000000000000000e+00 0.0000000000000000e+00
1.0000000000000000e+01 0.0000000000000000e+00 0.0000000000000000e+00

POINT_DATA 101

VECTORS velocity float
3.6525122674647283e+00 0.0000000000000000e+00 0.0000000000000000e+00
3.6523684464102777e+00 0.0000000000000000e+00 0.0000000000000000e+00
3.6522201967445924e+00 0.0000000000000000e+00 0.0000000000000000e+00
3.6520697610618504e+00 0.0000000000000000e+00 0.0000000000000000e+00
3.6519189295860337e+00 0.0000000000000000e+00 0.0000000000000000e+00
3.6517692417524956e+00 0.0000000000000000e+00 0.0000000000000000e+00
3.6516228830071236e+00 0.0000000000000000e+00 0.0000000000000000e+00
3.6514809513623203e+00 0.0000000000000000e+00 0.0000000000000000e+00
3.6513403811797711e+00 0.0000000000000000e+00 0.0000000000000000e+00
3.6511983446749814e+00 0.0000000000000000e+00 0.0000000000000000e+00
3.6510559130046052e+00 0.0000000000000000e+00 0.0000000000000000e+00
3.6509142161478487e+00 0.0000000000000000e+00 0.0000000000000000e+00
3.6507739298545103e+00 0.0000000000000000e+00 0.0000000000000000e+00
3.6506366430039492e+00 0.0000000000000000e+00 0.0000000000000000e+00
3.6505028362799412e+00 0.0000000000000000e+00 0.0000000000000000e+00
3.6503720980206902e+00 0.0000000000000000e+00 0.0000000000000000e+00
3.6502426834268951e+00 0.0000000000000000e+00 0.0000000000000000e+00
3.6501128703315779e+00 0.0000000000000000e+00 0.0000000000000000e+00
3.6499834270340701e+00 0.0000000000000000e+00 0.0000000000000000e+00
3.6498550144810857e+00 0.0000000000000000e+00 0.0000000000000000e+00
3.6497279148493700e+00 0.0000000000000000e+00 0.0000000000000000e+00
3.6496028756452765e+00 0.0000000000000000e+00 0.0000000000000000e+00
3.6494804807980672e+00 0.0000000000000000e+00 0.0000000000000000e+00
3.6493609972223804e+00 0.0000000000000000e+00 0.0000000000000000e+00
3.6492430279302543e+00 0.0000000000000000e+00 0.0000000000000000e+00
3.6491257599844249e+00 0.0000000000000000e+00 0.0000000000000000e+00
3.6490100767966047e+00 0.0000000000000000e+00 0.0000000000000000e+00
3.6488959988095266e+00 0.0000000000000000e+00 0.0000000000000000e+00
3.6487835977177570e+00 0.0000000000000000e+00 0.0000000000000000e+00
3.6486724433173445e+00 0.0000000000000000e+00 0.0000000000000000e+00
3.6485622231064787e+00 0.0000000000000000e+00 0.0000000000000000e+00
3.6484532559759768e+00 0.0000000000000000e+00 0.0000000000000000e+00
3.6483459164696410e+00 0.0000000000000000e+00 0.0000000000000000e+00
3.6482405961554982e+00 0.0000000000000000e+00 0.0000000000000000e+00
3.6481371652342474e+00 0.0000000000000000e+00 0.0000000000000000e+00
3.6480354338456538e+00 0.0000000000000000e+00 0.0000000000000000e+00
3.6479353315249674e+00 0.0000000000000000e+00 0.0000000000000000e+00
3.6478368117570197e+00 0.0000000000000000e+00 0.0000000000000000e+00
3.6477398961801479e+00 0.0000000000000000e+00 0.0000000000000000e+00
3.6476444685833544e+00 0.0000000000000000e+00 0.0000000000000000e+00
3.6475504362853304e+00 0.0000000000000000e+00 0.0000000000000000e+00
3.6474579087376151e+00 0.0000000000000000e+00 0.0000000000000000e+00
3.6473669271437243e+00 0.0000000000000000e+00 0.0000000000000000e+00
3.6472775079310011e+00 0.0000000000000000e+00 0.0000000000000000e+00
3.6471896574791822e+00 0.0000000000000000e+00 0.0000000000000000e+00
3.6471033779860078e+00 0.0000000000000000e+00 0.0000000000000000e+00
3.6470186699845057e+00 0.0000000000000000e+00 0.0000000000000000e+00
3.6469355332335005e+00 0.0000000000000000e+00 0.0000000000000000e+00
3.6468539677334508e+00 0.0000000000000000e+00 0.0000000000000000e+00
3.6467739732800237e+00 0.0000000000000000e+00 0.0000000000000000e+00
3.6466955491507127e+00 0.0000000000000000e+00 0.0000000000000000e+00
3.6466186950830277e+00 0.0000000000000000e+00 0.0000000000000000e+00
3.6465434106570451e+00 0.0000000000000000e+00 0.0000000000000000e+00
3.6464696953089364e+00 0.0000000000000000e+00 0.0000000000000000e+00
3.6463975487636562e+00 0.0000000000000000e+00 0.0000000000000000e+00
3.6463269708816584e+00 0.0000000000000000e+00 0.0000000000000000e+00
3.6462579608513361e+00 0.0000000000000000e+00 0.0000000000000000e+00
3.6461905181506884e+00 0.0000000000000000e+00 0.0000000000000000e+00
3.6461246429167273e+00 0.0000000000000000e+00 0.0000000000000000e+00
3.6460603348076361e+00 0.0000000000000000e+00 0.0000000000000000e+00
3.6459975933230417e+00 0.0000000000000000e+00 0.0000000000000000e+00
3.6459364181670977e+00 0.0000000000000000e+00 0.0000000000000000e+00
3.6458768090355433e+00 0.0000000000000000e+00 0.0000000000000000e+00
3.6458187653594698e+00 0.0000000000000000e+00 0.0000000000000000e+00
3.6457622867279960e+00 0.0000000000000000e+00 0.0000000000000000e+00
3.6457073728106657e+00 0.0000000000000000e+00 0.0000000000000000e+00
3.6456540231946102e+00 0.0000000000000000e+00 0.0000000000000000e+00
3.6456022375863411e+00 0.0000000000000000e+00 0.0000000000000000e+00
3.6455520156791295e+00 0.0000000000000000e+00 0.0000000000000000e+00
3.6455033570754685e+00 0.0000000000000000e+00 0.0000000000000000e+00
3.6454562613938251e+00 0.0000000000000000e+00 0.0000000000000000e+00
3.6454107282700634e+00 0.0000000000000000e+00 0.0000000000000000e+00
3.6453667573376398e+00 0.0000000000000000e+00 0.0000000000000000e+00
3.6453243482477435e+00 0.0000000000000000e+00 0.0000000000000000e+00
3.6452835006677118e+00 0.0000000000000000e+00 0.0000000000000000e+00
3.6452442141487627e+00 0.0000000000000000e+00 0.0000000000000000e+00
3.6452064884752828e+00 0.0000000000000000e+00 0.0000000000000000e+00
3.6451703231251242e+00 0.0000000000000000e+00 0.0000000000000000e+00
3.6451357178261827e+00 0.0000000000000000e+00 0.0000000000000000e+00
3.6451026725907387e+00 0.0000000000000000e+00 0.0000000000000000e+00
3.6450711867581460e+00 0.0000000000000000e+00 0.0000000000000000e+00
3.6450412598965918e+00 0.0000000000000000e+00 0.0000000000000000e+00
3.6450128915672959e+00 0.0000000000000000e+00 0.0000000000000000e+00
3.6449860820375832e+00 0.0000000000000000e+00 0.0000000000000000e+00
3.6449608307320238e+00 0.0000000000000000e+00 0.0000000000000000e+00
3.6449371364579859e+00 0.0000000000000000e+00 0.0000000000000000e+00
3.6449149988005582e+00 0.0000000000000000e+00 0.0000000000000000e+00
3.6448944178385791e+00 0.0000000000000000e+00 0.0000000000000000e+00
3.6448753936922635e+00 0.0000000000000000e+00 0.0000000000000000e+00
3.6448579259810945e+00 0.0000000000000000e+00 0.0000000000000000e+00
3.6448420144819456e+00 0.0000000000000000e+00 0.0000000000000000e+00
3.6448276590607991e+00 0.0000000000000000e+00 0.0000000000000000e+00
3.6448148571044157e+00 0.0000000000000000e+00 0.0000000000000000e+00
3.6448036142428379e+00 0.0000000000000000e+00 0.0000000000000000e+00
3.6447939170738182e+00 0.0000000000000000e+00 0.0000000000000000e+00
3.6447857945669742e+00 0.0000000000000000e+00 0.0000000000000000e+00
3.6447791766234170e+00 0.0000000000000000e+00 0.0000000000000000e+00
3.6447742285547111e+00 0.0000000000000000e+00 0.0000000000000000e+00
3.6447705570436284e+00 0.0000000000000000e+00 0.0000000000000000e+00
3.6447690932823176e+00 0.0000000000000000e+00 0.0000000000000000e+00
3.6447676295210072e+00 0.0000000000000000e+00 0.0000000000000000e+00


SCALARS pressure float
LOOKUP_TABLE default
5.0915551491658995e-01
5.0591502909921071e-01
5.0267454328183148e-01
4.9940228799270425e-01
4.9609073560218425e-01
4.9273426207744259e-01
4.8932793066351749e-01
4.8586438890998535e-01
4.8234017608173352e-01
4.7876672050959168e-01
4.7515473269476655e-01
4.7150101051613869e-01
4.6780190165639268e-01
4.6405533110645847e-01
4.6025590914881598e-01
4.5640216512265597e-01
4.5249594788051628e-01
4.4854405857737623e-01
4.4455334712658745e-01
4.4052157738680764e-01
4.3644660920458755e-01
4.3232772832915961e-01
4.2816270032764142e-01
4.2394984789725476e-01
4.1968863245903210e-01
4.1538420152391398e-01
4.1103985803148196e-01
4.0665308168257241e-01
4.0222422976454864e-01
3.9775348577520325e-01
3.9324281977551834e-01
3.8869380503293760e-01
3.8410574137637560e-01
3.7947765470326000e-01
3.7480848137325079e-01
3.7009903475316558e-01
3.6535040042702627e-01
3.6056325138070816e-01
3.5573817155382570e-01
3.5087550014433461e-01
3.4597606677630377e-01
3.4104063195775058e-01
3.3606923121472732e-01
3.3106212726494266e-01
3.2601967496569489e-01
3.2094226630650602e-01
3.1583030857340882e-01
3.1068421511031619e-01
3.0550440206315804e-01
3.0029128469445082e-01
2.9504527888901300e-01
2.8976680232245727e-01
2.8445627098020781e-01
2.7911410134298292e-01
2.7374071038555758e-01
2.6833651399925923e-01
2.6290192753122499e-01
2.5743736863554528e-01
2.5194325391433131e-01
2.4641999756444025e-01
2.4086801540671163e-01
2.3528772381716825e-01
2.2967953838240043e-01
2.2404387463150741e-01
2.1838114897729613e-01
2.1269177722463395e-01
2.0697617482283615e-01
2.0123475744793562e-01
1.9546794029746467e-01
1.8967613855160881e-01
1.8385976765759710e-01
1.7801924295183932e-01
1.7215497964102186e-01
1.6626739287216580e-01
1.6035689766277478e-01
1.5442390891007432e-01
1.4846884184453041e-01
1.4249211082888327e-01
1.3649413121377407e-01
1.3047531742754304e-01
1.2443608281851358e-01
1.1837684299010301e-01
1.1229801269862585e-01
1.0620000662266256e-01
1.0008323694987591e-01
9.3948118695611010e-02
8.7795068962079600e-02
8.1624501954522616e-02
7.5436830202358945e-02
6.9232466019763156e-02
6.3011823438221301e-02
5.6775315700220139e-02
5.0523355688989108e-02
4.4256364747936025e-02
3.7974735967208746e-02
3.1678927204505103e-02
2.5369252412749246e-02
1.9046361044224566e-02
1.2710106287222959e-02
6.3622270600205534e-03
0.0000000000000000e+00


SCALARS diameter float
LOOKUP_TABLE default
1.0000461935632865e+00
1.0000461056939149e+00
1.0000454128096685e+00
1.0000454996399031e+00
1.0000457365112507e+00
1.0000459430661524e+00
1.0000453306832942e+00
1.0000436134004798e+00
1.0000419110473699e+00
1.0000418641676974e+00
1.0000423074131353e+00
1.0000427276369745e+00
1.0000431059240409e+00
1.0000429684949037e+00
1.0000419927021900e+00
1.0000407950899570e+00
1.0000396026521663e+00
1.0000395025106972e+00
1.0000396230197786e+00
1.0000397550279385e+00
1.0000398955414780e+00
1.0000398866344313e+00
1.0000393832218843e+00
1.0000385207581728e+00
1.0000375540015713e+00
1.0000373063969057e+00
1.0000368615433004e+00
1.0000363603741749e+00
1.0000358592383078e+00
1.0000353865024385e+00
1.0000352568437292e+00
1.0000351179351263e+00
1.0000349540315199e+00
1.0000345495622265e+00
1.0000340494487940e+00
1.0000335466913801e+00
1.0000330408983649e+00
1.0000325321777173e+00
1.0000320202603461e+00
1.0000315121407723e+00
1.0000310964804140e+00
1.0000306737909430e+00
1.0000302453712626e+00
1.0000298118562712e+00
1.0000293735176395e+00
1.0000289305887586e+00
1.0000284832392208e+00
1.0000280316478745e+00
1.0000275758763717e+00
1.0000271157943261e+00
1.0000266517933663e+00
1.0000261838426567e+00
1.0000257119911209e+00
1.0000252364543634e+00
1.0000247572358940e+00
1.0000242743155705e+00
1.0000237878850060e+00
1.0000232982529587e+00
1.0000228050962534e+00
1.0000223085571038e+00
1.0000218088029880e+00
1.0000213058761394e+00
1.0000207997897406e+00
1.0000202907222648e+00
1.0000197787859315e+00
1.0000192639781620e+00
1.0000187464301076e+00
1.0000182261750747e+00
1.0000177032597251e+00
1.0000171777808964e+00
1.0000166498279959e+00
1.0000161194592458e+00
1.0000155867591534e+00
1.0000150517885578e+00
1.0000145146150383e+00
1.0000139753267048e+00
1.0000134339954621e+00
1.0000128906319883e+00
1.0000123454697556e+00
1.0000117982271648e+00
1.0000112492207012e+00
1.0000106985606765e+00
1.0000101462674738e+00
1.0000095923101919e+00
1.0000090365515475e+00
1.0000084797609197e+00
1.0000079217570792e+00
1.0000073625567309e+00
1.0000068019118704e+00
1.0000062400294261e+00
1.0000056769511090e+00
1.0000051126075327e+00
1.0000045477879760e+00
1.0000039814887207e+00
1.0000034145585852e+00
1.0000028469030227e+00
1.0000022785705831e+00
1.0000017096358662e+00
1.0000011401102211e+00
1.0000005701677139e+00
1.0000000000233478e+00


SCALARS iters float
LOOKUP_TABLE default
3.0000000000000000e+00
3.0000000000000000e+00
3.0000000000000000e+00
3.0000000000000000e+00
3.0000000000000000e+00
3.0000000000000000e+00
3.0000000000000000e+00
3.0000000000000000e+00
3.0000000000000000e+00
3.0000000000000000e+00
3.0000000000000000e+00
3.0000000000000000e+00
3.0000000000000000e+00
3.0000000000000000e+00
3.0000000000000000e+00
3.0000000000000000e+00
3.0000000000000000e+00
3.0000000000000000e+00
3.0000000000000000e+00
3.0000000000000000e+00
3.0000000000000000e+00
3.0000000000000000e+00
3.0000000000000000e+00
3.0000000000000000e+00
3.0000000000000000e+00
3.0000000000000000e+00
3.0000000000000000e+00
3.0000000000000000e+00
3.0000000000000000e+00
3.0000000000000000e+00
3.0000000000000000e+00
3.0000000000000000e+00
3.0000000000000000e+00
3.0000000000000000e+00
3.0000000000000000e+00
3.0000000000000000e+00
3.0000000000000000e+00
3.0000000000000000e+00
3.0000000000000000e+00
3.0000000000000000e+00
3.0000000000000000e+00
3.0000000000000000e+00
3.0000000000000000e+00
3.0000000000000000e+00
3.0000000000000000e+00
3.0000000000000000e+00
3.0000000000000000e+00
3.0000000000000000e+00
3.0000000000000000e+00
3.0000000000000000e+00
3.0000000000000000e+00
3.0000000000000000e+00
3.0000000000000000e+00
3.0000000000000000e+00
3.0000000000000000e+00
3.0000000000000000e+00
3.0000000000000000e+00
3.0000000000000000e+00
3.0000000000000000e+00
3.0000000000000000e+00
3.0000000000000000e+00
3.0000000000000000e+00
3.0000000000000000e+00
3.0000000000000000e+00
3.0000000000000000e+00
3.0000000000000000e+00
3.0000000000000000e+00
3.0000000000000000e+00
3.0000000000000000e+00
3.0000000000000000e+00
3.0000000000000000e+00
3.0000000000000000e+00
3.0000000000000000e+00
3.0000000000000000e+00
3.0000000000000000e+00
3.0000000000000000e+00
3.0000000000000000e+00
3.0000000000000000e+00
3.0000000000000000e+00
3.0000000000000000e+00
3.0000000000000000e+00
3.0000000000000000e+00
3.0000000000000000e+00
3.0000000000000000e+00
3.0000000000000000e+00
3.0000000000000000e+00
3.0000000000000000e+00
3.0000000000000000e+00
3.0000000000000000e+00
3.0000000000000000e+00
3.0000000000000000e+00
3.0000000000000000e+00
3.0000000000000000e+00
3.0000000000000000e+00
3.0000000000000000e+00
3.0000000000000000e+00
3.0000000000000000e+00
3.0000000000000000e+00
3.0000000000000000e+00
3.0000000000000000e+00
3.0000000000000000e+00


