# vtk DataFile Version 2.0

ASCII

DATASET UNSTRUCTURED_GRID

POINTS 101 float

0.0000000000000000e+00 0.0000000000000000e+00 0.0000000000000000e+00
1.0000000000000001e-01 0.0000000000000000e+00 0.0000000000000000e+00
2.0000000000000001e-01 0.0000000000000000e+00 0.0000000000000000e+00
3.0000000000000004e-01 0.0000000000000000e+00 0.0000000000000000e+00
4.0000000000000002e-01 0.0000000000000000e+00 0.0000000000000000e+00
5.0000000000000000e-01 0.0000000000000000e+00 0.0000000000000000e+00
6.0000000000000009e-01 0.0000000000000000e+00 0.0000000000000000e+00
7.0000000000000007e-01 0.0000000000000000e+00 0.0000000000000000e+00
8.0000000000000004e-01 0.0000000000000000e+00 0.0000000000000000e+00
9.0000000000000002e-01 0.0000000000000000e+00 0.0000000000000000e+00
1.0000000000000000e+00 0.0000000000000000e+00 0.0000000000000000e+00
1.1000000000000001e+00 0.0000000000000000e+00 0.0000000000000000e+00
1.2000000000000002e+00 0.0000000000000000e+00 0.0000000000000000e+00
1.3000000000000000e+00 0.0000000000000000e+00 0.0000000000000000e+00
1.4000000000000001e+00 0.0000000000000000e+00 0.0000000000000000e+00
1.5000000000000000e+00 0.0000000000000000e+00 0.0000000000000000e+00
1.6000000000000001e+00 0.0000000000000000e+00 0.0000000000000000e+00
1.7000000000000002e+00 0.0000000000000000e+00 0.0000000000000000e+00
1.8000000000000000e+00 0.0000000000000000e+00 0.0000000000000000e+00
1.9000000000000001e+00 0.0000000000000000e+00 0.0000000000000000e+00
2.0000000000000000e+00 0.0000000000000000e+00 0.0000000000000000e+00
2.1000000000000001e+00 0.0000000000000000e+00 0.0000000000000000e+00
2.2000000000000002e+00 0.0000000000000000e+00 0.0000000000000000e+00
2.3000000000000003e+00 0.0000000000000000e+00 0.0000000000000000e+00
2.4000000000000004e+00 0.0000000000000000e+00 0.0000000000000000e+00
2.5000000000000000e+00 0.0000000000000000e+00 0.0000000000000000e+00
2.6000000000000001e+00 0.0000000000000000e+00 0.0000000000000000e+00
2.7000000000000002e+00 0.0000000000000000e+00 0.0000000000000000e+00
2.8000000000000003e+00 0.0000000000000000e+00 0.0000000000000000e+00
2.9000000000000004e+00 0.0000000000000000e+00 0.0000000000000000e+00
3.0000000000000000e+00 0.0000000000000000e+00 0.0000000000000000e+00
3.1000000000000001e+00 0.0000000000000000e+00 0.0000000000000000e+00
3.2000000000000002e+00 0.0000000000000000e+00 0.0000000000000000e+00
3.3000000000000003e+00 0.0000000000000000e+00 0.0000000000000000e+00
3.4000000000000004e+00 0.0000000000000000e+00 0.0000000000000000e+00
3.5000000000000000e+00 0.0000000000000000e+00 0.0000000000000000e+00
3.6000000000000001e+00 0.0000000000000000e+00 0.0000000000000000e+00
3.7000000000000002e+00 0.0000000000000000e+00 0.0000000000000000e+00
3.8000000000000003e+00 0.0000000000000000e+00 0.0000000000000000e+00
3.9000000000000004e+00 0.0000000000000000e+00 0.0000000000000000e+00
4.0000000000000000e+00 0.0000000000000000e+00 0.0000000000000000e+00
4.1000000000000005e+00 0.0000000000000000e+00 0.0000000000000000e+00
4.2000000000000002e+00 0.0000000000000000e+00 0.0000000000000000e+00
4.2999999999999998e+00 0.0000000000000000e+00 0.0000000000000000e+00
4.4000000000000004e+00 0.0000000000000000e+00 0.0000000000000000e+00
4.5000000000000000e+00 0.0000000000000000e+00 0.0000000000000000e+00
4.6000000000000005e+00 0.0000000000000000e+00 0.0000000000000000e+00
4.7000000000000002e+00 0.0000000000000000e+00 0.0000000000000000e+00
4.8000000000000007e+00 0.0000000000000000e+00 0.0000000000000000e+00
4.9000000000000004e+00 0.0000000000000000e+00 0.0000000000000000e+00
5.0000000000000000e+00 0.0000000000000000e+00 0.0000000000000000e+00
5.1000000000000005e+00 0.0000000000000000e+00 0.0000000000000000e+00
5.2000000000000002e+00 0.0000000000000000e+00 0.0000000000000000e+00
5.3000000000000007e+00 0.0000000000000000e+00 0.0000000000000000e+00
5.4000000000000004e+00 0.0000000000000000e+00 0.0000000000000000e+00
5.5000000000000000e+00 0.0000000000000000e+00 0.0000000000000000e+00
5.6000000000000005e+00 0.0000000000000000e+00 0.0000000000000000e+00
5.7000000000000002e+00 0.0000000000000000e+00 0.0000000000000000e+00
5.8000000000000007e+00 0.0000000000000000e+00 0.0000000000000000e+00
5.9000000000000004e+00 0.0000000000000000e+00 0.0000000000000000e+00
6.0000000000000000e+00 0.0000000000000000e+00 0.0000000000000000e+00
6.1000000000000005e+00 0.0000000000000000e+00 0.0000000000000000e+00
6.2000000000000002e+00 0.0000000000000000e+00 0.0000000000000000e+00
6.3000000000000007e+00 0.0000000000000000e+00 0.0000000000000000e+00
6.4000000000000004e+00 0.0000000000000000e+00 0.0000000000000000e+00
6.5000000000000000e+00 0.0000000000000000e+00 0.0000000000000000e+00
6.6000000000000005e+00 0.0000000000000000e+00 0.0000000000000000e+00
6.7000000000000002e+00 0.0000000000000000e+00 0.0000000000000000e+00
6.8000000000000007e+00 0.0000000000000000e+00 0.0000000000000000e+00
6.9000000000000004e+00 0.0000000000000000e+00 0.0000000000000000e+00
7.0000000000000000e+00 0.0000000000000000e+00 0.0000000000000000e+00
7.1000000000000005e+00 0.0000000000000000e+00 0.0000000000000000e+00
7.2000000000000002e+00 0.0000000000000000e+00 0.0000000000000000e+00
7.3000000000000007e+00 0.0000000000000000e+00 0.0000000000000000e+00
7.4000000000000004e+00 0.0000000000000000e+00 0.0000000000000000e+00
7.5000000000000000e+00 0.0000000000000000e+00 0.0000000000000000e+00
7.6000000000000005e+00 0.0000000000000000e+00 0.0000000000000000e+00
7.7000000000000002e+00 0.0000000000000000e+00 0.0000000000000000e+00
7.8000000000000007e+00 0.0000000000000000e+00 0.0000000000000000e+00
7.9000000000000004e+00 0.0000000000000000e+00 0.0000000000000000e+00
8.0000000000000000e+00 0.0000000000000000e+00 0.0000000000000000e+00
8.0999999999999996e+00 0.0000000000000000e+00 0.0000000000000000e+00
8.2000000000000011e+00 0.0000000000000000e+00 0.0000000000000000e+00
8.3000000000000007e+00 0.0000000000000000e+00 0.0000000000000000e+00
8.4000000000000004e+00 0.0000000000000000e+00 0.0000000000000000e+00
8.5000000000000000e+00 0.0000000000000000e+00 0.0000000000000000e+00
8.5999999999999996e+00 0.0000000000000000e+00 0.0000000000000000e+00
8.7000000000000011e+00 0.0000000000000000e+00 0.0000000000000000e+00
8.8000000000000007e+00 0.0000000000000000e+00 0.0000000000000000e+00
8.9000000000000004e+00 0.0000000000000000e+00 0.0000000000000000e+00
9.0000000000000000e+00 0.0000000000000000e+00 0.0000000000000000e+00
9.0999999999999996e+00 0.0000000000000000e+00 0.0000000000000000e+00
9.2000000000000011e+00 0.0000000000000000e+00 0.0000000000000000e+00
9.3000000000000007e+00 0.0000000000000000e+00 0.0000000000000000e+00
9.4000000000000004e+00 0.0000000000000000e+00 0.0000000000000000e+00
9.5000000000000000e+00 0.0000000000000000e+00 0.0000000000000000e+00
9.6000000000000014e+00 0.0000000000000000e+00 0.0000000000000000e+00
9.7000000000000011e+00 0.0000000000000000e+00 0.0000000000000000e+00
9.8000000000000007e+00 0.0000000000000000e+00 0.0000000000000000e+00
9.9000000000000004e+00 0.0000000000000000e+00 0.0000000000000000e+00
1.0000000000000000e+01 0.0000000000000000e+00 0.0000000000000000e+00

POINT_DATA 101

VECTORS velocity float
2.6045724141034290e+00 0.0000000000000000e+00 0.0000000000000000e+00
2.6038753206848164e+00 0.0000000000000000e+00 0.0000000000000000e+00
2.6032667642637284e+00 0.0000000000000000e+00 0.0000000000000000e+00
2.6026909170689350e+00 0.0000000000000000e+00 0.0000000000000000e+00
2.6021293209287713e+00 0.0000000000000000e+00 0.0000000000000000e+00
2.6015767737853257e+00 0.0000000000000000e+00 0.0000000000000000e+00
2.6010337672263737e+00 0.0000000000000000e+00 0.0000000000000000e+00
2.6004989966222030e+00 0.0000000000000000e+00 0.0000000000000000e+00
2.5999677638071712e+00 0.0000000000000000e+00 0.0000000000000000e+00
2.5994380924631959e+00 0.0000000000000000e+00 0.0000000000000000e+00
2.5989113309049996e+00 0.0000000000000000e+00 0.0000000000000000e+00
2.5983889171317172e+00 0.0000000000000000e+00 0.0000000000000000e+00
2.5978715618735633e+00 0.0000000000000000e+00 0.0000000000000000e+00
2.5973612249948905e+00 0.0000000000000000e+00 0.0000000000000000e+00
2.5968587512875843e+00 0.0000000000000000e+00 0.0000000000000000e+00
2.5963630366436496e+00 0.0000000000000000e+00 0.0000000000000000e+00
2.5958729717781015e+00 0.0000000000000000e+00 0.0000000000000000e+00
2.5953874356814910e+00 0.0000000000000000e+00 0.0000000000000000e+00
2.5949064748781132e+00 0.0000000000000000e+00 0.0000000000000000e+00
2.5944307301704774e+00 0.0000000000000000e+00 0.0000000000000000e+00
2.5939603986175235e+00 0.0000000000000000e+00 0.0000000000000000e+00
2.5934954889251096e+00 0.0000000000000000e+00 0.0000000000000000e+00
2.5930356212249732e+00 0.0000000000000000e+00 0.0000000000000000e+00
2.5925807974185204e+00 0.0000000000000000e+00 0.0000000000000000e+00
2.5921332976486275e+00 0.0000000000000000e+00 0.0000000000000000e+00
2.5916929575693688e+00 0.0000000000000000e+00 0.0000000000000000e+00
2.5912569060994772e+00 0.0000000000000000e+00 0.0000000000000000e+00
2.5908255573013390e+00 0.0000000000000000e+00 0.0000000000000000e+00
2.5903994316513148e+00 0.0000000000000000e+00 0.0000000000000000e+00
2.5899782783018286e+00 0.0000000000000000e+00 0.0000000000000000e+00
2.5895619235658298e+00 0.0000000000000000e+00 0.0000000000000000e+00
2.5891505944585598e+00 0.0000000000000000e+00 0.0000000000000000e+00
2.5887447267756309e+00 0.0000000000000000e+00 0.0000000000000000e+00
2.5883448434411611e+00 0.0000000000000000e+00 0.0000000000000000e+00
2.5879507868012892e+00 0.0000000000000000e+00 0.0000000000000000e+00
2.5875622895078565e+00 0.0000000000000000e+00 0.0000000000000000e+00
2.5871792517575867e+00 0.0000000000000000e+00 0.0000000000000000e+00
2.5868016131882583e+00 0.0000000000000000e+00 0.0000000000000000e+00
2.5864294180581164e+00 0.0000000000000000e+00 0.0000000000000000e+00
2.5860624605869718e+00 0.0000000000000000e+00 0.0000000000000000e+00
2.5857003255783924e+00 0.0000000000000000e+00 0.0000000000000000e+00
2.5853431839318803e+00 0.0000000000000000e+00 0.0000000000000000e+00
2.5849911300734081e+00 0.0000000000000000e+00 0.0000000000000000e+00
2.5846441868430605e+00 0.0000000000000000e+00 0.0000000000000000e+00
2.5843023574690265e+00 0.0000000000000000e+00 0.0000000000000000e+00
2.5839656403347333e+00 0.0000000000000000e+00 0.0000000000000000e+00
2.5836340316770068e+00 0.0000000000000000e+00 0.0000000000000000e+00
2.5833075273509598e+00 0.0000000000000000e+00 0.0000000000000000e+00
2.5829861235050675e+00 0.0000000000000000e+00 0.0000000000000000e+00
2.5826698166614497e+00 0.0000000000000000e+00 0.0000000000000000e+00
2.5823586032634602e+00 0.0000000000000000e+00 0.0000000000000000e+00
2.5820524797233415e+00 0.0000000000000000e+00 0.0000000000000000e+00
2.5817514426744044e+00 0.0000000000000000e+00 0.0000000000000000e+00
2.5814554888288335e+00 0.0000000000000000e+00 0.0000000000000000e+00
2.5811646150285350e+00 0.0000000000000000e+00 0.0000000000000000e+00
2.5808788179282431e+00 0.0000000000000000e+00 0.0000000000000000e+00
2.5805980939503503e+00 0.0000000000000000e+00 0.0000000000000000e+00
2.5803224401343474e+00 0.0000000000000000e+00 0.0000000000000000e+00
2.5800518538735400e+00 0.0000000000000000e+00 0.0000000000000000e+00
2.5797863322510985e+00 0.0000000000000000e+00 0.0000000000000000e+00
2.5795258723371250e+00 0.0000000000000000e+00 0.0000000000000000e+00
2.5792704712654735e+00 0.0000000000000000e+00 0.0000000000000000e+00
2.5790201263278885e+00 0.0000000000000000e+00 0.0000000000000000e+00
2.5787748347747215e+00 0.0000000000000000e+00 0.0000000000000000e+00
2.5785345940079276e+00 0.0000000000000000e+00 0.0000000000000000e+00
2.5782994015117984e+00 0.0000000000000000e+00 0.0000000000000000e+00
2.5780692547847339e+00 0.0000000000000000e+00 0.0000000000000000e+00
2.5778441514773154e+00 0.0000000000000000e+00 0.0000000000000000e+00
2.5776240893080922e+00 0.0000000000000000e+00 0.0000000000000000e+00
2.5774090659846309e+00 0.0000000000000000e+00 0.0000000000000000e+00
2.5771990792465789e+00 0.0000000000000000e+00 0.0000000000000000e+00
2.5769941268845979e+00 0.0000000000000000e+00 0.0000000000000000e+00
2.5767942067652134e+00 0.0000000000000000e+00 0.0000000000000000e+00
2.5765993170172887e+00 0.0000000000000000e+00 0.0000000000000000e+00
2.5764094557929913e+00 0.0000000000000000e+00 0.0000000000000000e+00
2.5762246212790352e+00 0.0000000000000000e+00 0.0000000000000000e+00
2.5760448118975878e+00 0.0000000000000000e+00 0.0000000000000000e+00
2.5758700257336975e+00 0.0000000000000000e+00 0.0000000000000000e+00
2.5757002612054714e+00 0.0000000000000000e+00 0.0000000000000000e+00
2.5755355170469145e+00 0.0000000000000000e+00 0.0000000000000000e+00
2.5753757914291184e+00 0.0000000000000000e+00 0.0000000000000000e+00
2.5752210829235738e+00 0.0000000000000000e+00 0.0000000000000000e+00
2.5750713901738478e+00 0.0000000000000000e+00 0.0000000000000000e+00
2.5749267127351514e+00 0.0000000000000000e+00 0.0000000000000000e+00
2.5747870488209830e+00 0.0000000000000000e+00 0.0000000000000000e+00
2.5746523961924157e+00 0.0000000000000000e+00 0.0000000000000000e+00
2.5745227543108595e+00 0.0000000000000000e+00 0.0000000000000000e+00
2.5743981217047818e+00 0.0000000000000000e+00 0.0000000000000000e+00
2.5742784980081685e+00 0.0000000000000000e+00 0.0000000000000000e+00
2.5741638829201254e+00 0.0000000000000000e+00 0.0000000000000000e+00
2.5740542764715957e+00 0.0000000000000000e+00 0.0000000000000000e+00
2.5739496768913477e+00 0.0000000000000000e+00 0.0000000000000000e+00
2.5738500815293026e+00 0.0000000000000000e+00 0.0000000000000000e+00
2.5737554957995075e+00 0.0000000000000000e+00 0.0000000000000000e+00
2.5736659039821839e+00 0.0000000000000000e+00 0.0000000000000000e+00
2.5735813493815600e+00 0.0000000000000000e+00 0.0000000000000000e+00
2.5735017061489489e+00 0.0000000000000000e+00 0.0000000000000000e+00
2.5734273244310129e+00 0.0000000000000000e+00 0.0000000000000000e+00
2.5733572447762452e+00 0.0000000000000000e+00 0.0000000000000000e+00
2.5732940526482575e+00 0.0000000000000000e+00 0.0000000000000000e+00
2.5732308605202698e+00 0.0000000000000000e+00 0.0000000000000000e+00


SCALARS pressure float
LOOKUP_TABLE default
-2.2094515514398601e+01
-2.1889705728779930e+01
-2.1684895943161258e+01
-2.1479742919960042e+01
-2.1274143640058284e+01
-2.1068063898622935e+01
-2.0861497223310693e+01
-2.0654450377121062e+01
-2.0446921329080993e+01
-2.0238899031758876e+01
-2.0030384064562224e+01
-1.9821385929279021e+01
-1.9611912867986575e+01
-1.9401971451577673e+01
-1.9191573203003124e+01
-1.8980725798799746e+01
-1.8769431646489636e+01
-1.8557692874307843e+01
-1.8345510990682111e+01
-1.8132893065327263e+01
-1.7919848444446405e+01
-1.7706384355663591e+01
-1.7492506807601242e+01
-1.7278220236651237e+01
-1.7063529593941865e+01
-1.6848447814874547e+01
-1.6632979864489936e+01
-1.6417122576272543e+01
-1.6200884134452625e+01
-1.5984271473093658e+01
-1.5767289581371834e+01
-1.5549944053153704e+01
-1.5332241642005506e+01
-1.5114189579890947e+01
-1.4895795281496877e+01
-1.4677063972754929e+01
-1.4458000849496120e+01
-1.4238611623804442e+01
-1.4018902035968056e+01
-1.3798878176027783e+01
-1.3578545210197179e+01
-1.3357907259005957e+01
-1.3136970440226916e+01
-1.2915740406825870e+01
-1.2694222691371778e+01
-1.2472422793530018e+01
-1.2250346206003888e+01
-1.2027998417863797e+01
-1.1805384919813010e+01
-1.1582511205232384e+01
-1.1359382769795925e+01
-1.1136005109958973e+01
-1.0912383723498673e+01
-1.0688524110046160e+01
-1.0464431770641403e+01
-1.0240112207944833e+01
-1.0015570925166367e+01
-9.7908134260996942e+00
-9.5658452175725852e+00
-9.3406718082640658e+00
-9.1152987067525189e+00
-8.8897314227260722e+00
-8.6639754673313494e+00
-8.4380363532837173e+00
-8.2119195939726186e+00
-7.9856307041457297e+00
-7.7591751996351883e+00
-7.5325585971633959e+00
-7.3057864147538600e+00
-7.0788641713649820e+00
-6.8517973867141642e+00
-6.6245915814328784e+00
-6.3972522771664471e+00
-6.1697849966411757e+00
-5.9421952640311027e+00
-5.7144886042483742e+00
-5.4866705428458289e+00
-5.2587466066169553e+00
-5.0307223218572501e+00
-4.8026032167000992e+00
-4.5743948209892125e+00
-4.3461026631158042e+00
-4.1177322735516091e+00
-3.8892891832272949e+00
-3.6607789259989092e+00
-3.4322070318062732e+00
-3.2035790309937080e+00
-2.9749004593447927e+00
-2.7461768490991805e+00
-2.5174137369923009e+00
-2.2886166596735866e+00
-2.0597911542631500e+00
-1.8309427558355549e+00
-1.6020769911726240e+00
-1.3731994278243651e+00
-1.1443155259473576e+00
-9.1543103462024322e-01
-6.8655091566106452e-01
-4.5768226264840284e-01
-2.2882647623960736e-01
0.0000000000000000e+00


SCALARS diameter float
LOOKUP_TABLE default
9.9800517758063501e-01
9.9802800165048267e-01
9.9804826066706820e-01
9.9806733106188872e-01
9.9808581987702061e-01
9.9810438722301609e-01
9.9812109216496714e-01
9.9813696106303262e-01
9.9815405322657147e-01
9.9817308989380871e-01
9.9819290272328165e-01
9.9821280791616074e-01
9.9823277548569522e-01
9.9825210340846904e-01
9.9827040390762778e-01
9.9828863303584769e-01
9.9830722472862543e-01
9.9832635912590173e-01
9.9834546379925893e-01
9.9836457633462039e-01
9.9838382711095974e-01
9.9840337925583889e-01
9.9842317993109597e-01
9.9844334959707526e-01
9.9846244161529507e-01
9.9848019323285342e-01
9.9849961466107739e-01
9.9851906272884017e-01
9.9853853395051406e-01
9.9855806344286258e-01
9.9857799594442131e-01
9.9859795067353641e-01
9.9861791851943227e-01
9.9863752167594333e-01
9.9865700544534963e-01
9.9867651092283305e-01
9.9869603914361149e-01
9.9871559091088469e-01
9.9873516563608189e-01
9.9875478453505429e-01
9.9877475120722647e-01
9.9879473587833500e-01
9.9881474095985578e-01
9.9883476626529610e-01
9.9885481166443524e-01
9.9887487687376297e-01
9.9889496143390910e-01
9.9891506543765785e-01
9.9893518848636964e-01
9.9895533029913131e-01
9.9897549048692569e-01
9.9899566881907975e-01
9.9901586497334582e-01
9.9903607852218901e-01
9.9905630917122157e-01
9.9907655661671169e-01
9.9909682083164186e-01
9.9911710143925025e-01
9.9913739778465360e-01
9.9915770965236395e-01
9.9917803675738637e-01
9.9919837874757989e-01
9.9921873536343753e-01
9.9923910634190083e-01
9.9925949138833636e-01
9.9927989012419260e-01
9.9930030228663436e-01
9.9932072751277756e-01
9.9934116544520080e-01
9.9936161578436333e-01
9.9938207823173109e-01
9.9940255250936527e-01
9.9942303832859980e-01
9.9944353538372466e-01
9.9946404324090654e-01
9.9948456169155842e-01
9.9950509027232437e-01
9.9952562864986860e-01
9.9954617674383883e-01
9.9956673366864868e-01
9.9958729977467053e-01
9.9960787441929588e-01
9.9962845746158169e-01
9.9964904811732347e-01
9.9966964609900677e-01
9.9969025206654216e-01
9.9971086512063434e-01
9.9973148516064569e-01
9.9975211168435429e-01
9.9977274392876125e-01
9.9979338136163887e-01
9.9981402387532736e-01
9.9983467260276837e-01
9.9985532525852605e-01
9.9987598241786213e-01
9.9989664370398756e-01
9.9991730871011819e-01
9.9993797714183863e-01
9.9995864852817451e-01
9.9997932281246904e-01
1.0000000013040431e+00


SCALARS iters float
LOOKUP_TABLE default
4.0000000000000000e+00
4.0000000000000000e+00
4.0000000000000000e+00
4.0000000000000000e+00
4.0000000000000000e+00
4.0000000000000000e+00
4.0000000000000000e+00
4.0000000000000000e+00
4.0000000000000000e+00
4.0000000000000000e+00
4.0000000000000000e+00
4.0000000000000000e+00
4.0000000000000000e+00
4.0000000000000000e+00
4.0000000000000000e+00
4.0000000000000000e+00
4.0000000000000000e+00
4.0000000000000000e+00
4.0000000000000000e+00
4.0000000000000000e+00
4.0000000000000000e+00
4.0000000000000000e+00
4.0000000000000000e+00
4.0000000000000000e+00
4.0000000000000000e+00
4.0000000000000000e+00
4.0000000000000000e+00
4.0000000000000000e+00
4.0000000000000000e+00
4.0000000000000000e+00
4.0000000000000000e+00
4.0000000000000000e+00
4.0000000000000000e+00
4.0000000000000000e+00
4.0000000000000000e+00
4.0000000000000000e+00
4.0000000000000000e+00
4.0000000000000000e+00
4.0000000000000000e+00
4.0000000000000000e+00
4.0000000000000000e+00
4.0000000000000000e+00
4.0000000000000000e+00
4.0000000000000000e+00
4.0000000000000000e+00
4.0000000000000000e+00
4.0000000000000000e+00
4.0000000000000000e+00
4.0000000000000000e+00
4.0000000000000000e+00
4.0000000000000000e+00
4.0000000000000000e+00
4.0000000000000000e+00
4.0000000000000000e+00
4.0000000000000000e+00
4.0000000000000000e+00
4.0000000000000000e+00
4.0000000000000000e+00
4.0000000000000000e+00
4.0000000000000000e+00
4.0000000000000000e+00
4.0000000000000000e+00
4.0000000000000000e+00
4.0000000000000000e+00
4.0000000000000000e+00
4.0000000000000000e+00
4.0000000000000000e+00
4.0000000000000000e+00
4.0000000000000000e+00
4.0000000000000000e+00
4.0000000000000000e+00
4.0000000000000000e+00
4.0000000000000000e+00
4.0000000000000000e+00
4.0000000000000000e+00
4.0000000000000000e+00
4.0000000000000000e+00
4.0000000000000000e+00
4.0000000000000000e+00
4.0000000000000000e+00
4.0000000000000000e+00
4.0000000000000000e+00
4.0000000000000000e+00
4.0000000000000000e+00
4.0000000000000000e+00
4.0000000000000000e+00
4.0000000000000000e+00
4.0000000000000000e+00
4.0000000000000000e+00
4.0000000000000000e+00
4.0000000000000000e+00
4.0000000000000000e+00
4.0000000000000000e+00
4.0000000000000000e+00
4.0000000000000000e+00
4.0000000000000000e+00
4.0000000000000000e+00
4.0000000000000000e+00
4.0000000000000000e+00
4.0000000000000000e+00
4.0000000000000000e+00


