# vtk DataFile Version 2.0

ASCII

DATASET UNSTRUCTURED_GRID

POINTS 101 float

0.0000000000000000e+00 0.0000000000000000e+00 0.0000000000000000e+00
1.0000000000000001e-01 0.0000000000000000e+00 0.0000000000000000e+00
2.0000000000000001e-01 0.0000000000000000e+00 0.0000000000000000e+00
3.0000000000000004e-01 0.0000000000000000e+00 0.0000000000000000e+00
4.0000000000000002e-01 0.0000000000000000e+00 0.0000000000000000e+00
5.0000000000000000e-01 0.0000000000000000e+00 0.0000000000000000e+00
6.0000000000000009e-01 0.0000000000000000e+00 0.0000000000000000e+00
7.0000000000000007e-01 0.0000000000000000e+00 0.0000000000000000e+00
8.0000000000000004e-01 0.0000000000000000e+00 0.0000000000000000e+00
9.0000000000000002e-01 0.0000000000000000e+00 0.0000000000000000e+00
1.0000000000000000e+00 0.0000000000000000e+00 0.0000000000000000e+00
1.1000000000000001e+00 0.0000000000000000e+00 0.0000000000000000e+00
1.2000000000000002e+00 0.0000000000000000e+00 0.0000000000000000e+00
1.3000000000000000e+00 0.0000000000000000e+00 0.0000000000000000e+00
1.4000000000000001e+00 0.0000000000000000e+00 0.0000000000000000e+00
1.5000000000000000e+00 0.0000000000000000e+00 0.0000000000000000e+00
1.6000000000000001e+00 0.0000000000000000e+00 0.0000000000000000e+00
1.7000000000000002e+00 0.0000000000000000e+00 0.0000000000000000e+00
1.8000000000000000e+00 0.0000000000000000e+00 0.0000000000000000e+00
1.9000000000000001e+00 0.0000000000000000e+00 0.0000000000000000e+00
2.0000000000000000e+00 0.0000000000000000e+00 0.0000000000000000e+00
2.1000000000000001e+00 0.0000000000000000e+00 0.0000000000000000e+00
2.2000000000000002e+00 0.0000000000000000e+00 0.0000000000000000e+00
2.3000000000000003e+00 0.0000000000000000e+00 0.0000000000000000e+00
2.4000000000000004e+00 0.0000000000000000e+00 0.0000000000000000e+00
2.5000000000000000e+00 0.0000000000000000e+00 0.0000000000000000e+00
2.6000000000000001e+00 0.0000000000000000e+00 0.0000000000000000e+00
2.7000000000000002e+00 0.0000000000000000e+00 0.0000000000000000e+00
2.8000000000000003e+00 0.0000000000000000e+00 0.0000000000000000e+00
2.9000000000000004e+00 0.0000000000000000e+00 0.0000000000000000e+00
3.0000000000000000e+00 0.0000000000000000e+00 0.0000000000000000e+00
3.1000000000000001e+00 0.0000000000000000e+00 0.0000000000000000e+00
3.2000000000000002e+00 0.0000000000000000e+00 0.0000000000000000e+00
3.3000000000000003e+00 0.0000000000000000e+00 0.0000000000000000e+00
3.4000000000000004e+00 0.0000000000000000e+00 0.0000000000000000e+00
3.5000000000000000e+00 0.0000000000000000e+00 0.0000000000000000e+00
3.6000000000000001e+00 0.0000000000000000e+00 0.0000000000000000e+00
3.7000000000000002e+00 0.0000000000000000e+00 0.0000000000000000e+00
3.8000000000000003e+00 0.0000000000000000e+00 0.0000000000000000e+00
3.9000000000000004e+00 0.0000000000000000e+00 0.0000000000000000e+00
4.0000000000000000e+00 0.0000000000000000e+00 0.0000000000000000e+00
4.1000000000000005e+00 0.0000000000000000e+00 0.0000000000000000e+00
4.2000000000000002e+00 0.0000000000000000e+00 0.0000000000000000e+00
4.2999999999999998e+00 0.0000000000000000e+00 0.0000000000000000e+00
4.4000000000000004e+00 0.0000000000000000e+00 0.0000000000000000e+00
4.5000000000000000e+00 0.0000000000000000e+00 0.0000000000000000e+00
4.6000000000000005e+00 0.0000000000000000e+00 0.0000000000000000e+00
4.7000000000000002e+00 0.0000000000000000e+00 0.0000000000000000e+00
4.8000000000000007e+00 0.0000000000000000e+00 0.0000000000000000e+00
4.9000000000000004e+00 0.0000000000000000e+00 0.0000000000000000e+00
5.0000000000000000e+00 0.0000000000000000e+00 0.0000000000000000e+00
5.1000000000000005e+00 0.0000000000000000e+00 0.0000000000000000e+00
5.2000000000000002e+00 0.0000000000000000e+00 0.0000000000000000e+00
5.3000000000000007e+00 0.0000000000000000e+00 0.0000000000000000e+00
5.4000000000000004e+00 0.0000000000000000e+00 0.0000000000000000e+00
5.5000000000000000e+00 0.0000000000000000e+00 0.0000000000000000e+00
5.6000000000000005e+00 0.0000000000000000e+00 0.0000000000000000e+00
5.7000000000000002e+00 0.0000000000000000e+00 0.0000000000000000e+00
5.8000000000000007e+00 0.0000000000000000e+00 0.0000000000000000e+00
5.9000000000000004e+00 0.0000000000000000e+00 0.0000000000000000e+00
6.0000000000000000e+00 0.0000000000000000e+00 0.0000000000000000e+00
6.1000000000000005e+00 0.0000000000000000e+00 0.0000000000000000e+00
6.2000000000000002e+00 0.0000000000000000e+00 0.0000000000000000e+00
6.3000000000000007e+00 0.0000000000000000e+00 0.0000000000000000e+00
6.4000000000000004e+00 0.0000000000000000e+00 0.0000000000000000e+00
6.5000000000000000e+00 0.0000000000000000e+00 0.0000000000000000e+00
6.6000000000000005e+00 0.0000000000000000e+00 0.0000000000000000e+00
6.7000000000000002e+00 0.0000000000000000e+00 0.0000000000000000e+00
6.8000000000000007e+00 0.0000000000000000e+00 0.0000000000000000e+00
6.9000000000000004e+00 0.0000000000000000e+00 0.0000000000000000e+00
7.0000000000000000e+00 0.0000000000000000e+00 0.0000000000000000e+00
7.1000000000000005e+00 0.0000000000000000e+00 0.0000000000000000e+00
7.2000000000000002e+00 0.0000000000000000e+00 0.0000000000000000e+00
7.3000000000000007e+00 0.0000000000000000e+00 0.0000000000000000e+00
7.4000000000000004e+00 0.0000000000000000e+00 0.0000000000000000e+00
7.5000000000000000e+00 0.0000000000000000e+00 0.0000000000000000e+00
7.6000000000000005e+00 0.0000000000000000e+00 0.0000000000000000e+00
7.7000000000000002e+00 0.0000000000000000e+00 0.0000000000000000e+00
7.8000000000000007e+00 0.0000000000000000e+00 0.0000000000000000e+00
7.9000000000000004e+00 0.0000000000000000e+00 0.0000000000000000e+00
8.0000000000000000e+00 0.0000000000000000e+00 0.0000000000000000e+00
8.0999999999999996e+00 0.0000000000000000e+00 0.0000000000000000e+00
8.2000000000000011e+00 0.0000000000000000e+00 0.0000000000000000e+00
8.3000000000000007e+00 0.0000000000000000e+00 0.0000000000000000e+00
8.4000000000000004e+00 0.0000000000000000e+00 0.0000000000000000e+00
8.5000000000000000e+00 0.0000000000000000e+00 0.0000000000000000e+00
8.5999999999999996e+00 0.0000000000000000e+00 0.0000000000000000e+00
8.7000000000000011e+00 0.0000000000000000e+00 0.0000000000000000e+00
8.8000000000000007e+00 0.0000000000000000e+00 0.0000000000000000e+00
8.9000000000000004e+00 0.0000000000000000e+00 0.0000000000000000e+00
9.0000000000000000e+00 0.0000000000000000e+00 0.0000000000000000e+00
9.0999999999999996e+00 0.0000000000000000e+00 0.0000000000000000e+00
9.2000000000000011e+00 0.0000000000000000e+00 0.0000000000000000e+00
9.3000000000000007e+00 0.0000000000000000e+00 0.0000000000000000e+00
9.4000000000000004e+00 0.0000000000000000e+00 0.0000000000000000e+00
9.5000000000000000e+00 0.0000000000000000e+00 0.0000000000000000e+00
9.6000000000000014e+00 0.0000000000000000e+00 0.0000000000000000e+00
9.7000000000000011e+00 0.0000000000000000e+00 0.0000000000000000e+00
9.8000000000000007e+00 0.0000000000000000e+00 0.0000000000000000e+00
9.9000000000000004e+00 0.0000000000000000e+00 0.0000000000000000e+00
1.0000000000000000e+01 0.0000000000000000e+00 0.0000000000000000e+00

POINT_DATA 101

VECTORS velocity float
4.4711311092493995e+00 0.0000000000000000e+00 0.0000000000000000e+00
4.4707362389622398e+00 0.0000000000000000e+00 0.0000000000000000e+00
4.4703352438044899e+00 0.0000000000000000e+00 0.0000000000000000e+00
4.4699300803826088e+00 0.0000000000000000e+00 0.0000000000000000e+00
4.4695239775664852e+00 0.0000000000000000e+00 0.0000000000000000e+00
4.4691204767307404e+00 0.0000000000000000e+00 0.0000000000000000e+00
4.4687227651495522e+00 0.0000000000000000e+00 0.0000000000000000e+00
4.4683325936597633e+00 0.0000000000000000e+00 0.0000000000000000e+00
4.4679474509140960e+00 0.0000000000000000e+00 0.0000000000000000e+00
4.4675650624099319e+00 0.0000000000000000e+00 0.0000000000000000e+00
4.4671862942590472e+00 0.0000000000000000e+00 0.0000000000000000e+00
4.4668118347580990e+00 0.0000000000000000e+00 0.0000000000000000e+00
4.4664425468530959e+00 0.0000000000000000e+00 0.0000000000000000e+00
4.4660804836540473e+00 0.0000000000000000e+00 0.0000000000000000e+00
4.4657258597654526e+00 0.0000000000000000e+00 0.0000000000000000e+00
4.4653781009013986e+00 0.0000000000000000e+00 0.0000000000000000e+00
4.4650339825408949e+00 0.0000000000000000e+00 0.0000000000000000e+00
4.4646909285870944e+00 0.0000000000000000e+00 0.0000000000000000e+00
4.4643514306255803e+00 0.0000000000000000e+00 0.0000000000000000e+00
4.4640169871748565e+00 0.0000000000000000e+00 0.0000000000000000e+00
4.4636875618652399e+00 0.0000000000000000e+00 0.0000000000000000e+00
4.4633634749886042e+00 0.0000000000000000e+00 0.0000000000000000e+00
4.4630455606967860e+00 0.0000000000000000e+00 0.0000000000000000e+00
4.4627342284656564e+00 0.0000000000000000e+00 0.0000000000000000e+00
4.4624284164300132e+00 0.0000000000000000e+00 0.0000000000000000e+00
4.4621268056716756e+00 0.0000000000000000e+00 0.0000000000000000e+00
4.4618294358838613e+00 0.0000000000000000e+00 0.0000000000000000e+00
4.4615367261650309e+00 0.0000000000000000e+00 0.0000000000000000e+00
4.4612489410891412e+00 0.0000000000000000e+00 0.0000000000000000e+00
4.4609655840718858e+00 0.0000000000000000e+00 0.0000000000000000e+00
4.4606863164031649e+00 0.0000000000000000e+00 0.0000000000000000e+00
4.4604115478906055e+00 0.0000000000000000e+00 0.0000000000000000e+00
4.4601418983080343e+00 0.0000000000000000e+00 0.0000000000000000e+00
4.4598780854196027e+00 0.0000000000000000e+00 0.0000000000000000e+00
4.4596198408775818e+00 0.0000000000000000e+00 0.0000000000000000e+00
4.4593668174121097e+00 0.0000000000000000e+00 0.0000000000000000e+00
4.4591189094578905e+00 0.0000000000000000e+00 0.0000000000000000e+00
4.4588759957391240e+00 0.0000000000000000e+00 0.0000000000000000e+00
4.4586381958249293e+00 0.0000000000000000e+00 0.0000000000000000e+00
4.4584050200294056e+00 0.0000000000000000e+00 0.0000000000000000e+00
4.4581760619118729e+00 0.0000000000000000e+00 0.0000000000000000e+00
4.4579517779053237e+00 0.0000000000000000e+00 0.0000000000000000e+00
4.4577323151272923e+00 0.0000000000000000e+00 0.0000000000000000e+00
4.4575177448973715e+00 0.0000000000000000e+00 0.0000000000000000e+00
4.4573081022639780e+00 0.0000000000000000e+00 0.0000000000000000e+00
4.4571034043872846e+00 0.0000000000000000e+00 0.0000000000000000e+00
4.4569036597038023e+00 0.0000000000000000e+00 0.0000000000000000e+00
4.4567088718301546e+00 0.0000000000000000e+00 0.0000000000000000e+00
4.4565190431992665e+00 0.0000000000000000e+00 0.0000000000000000e+00
4.4563341753174042e+00 0.0000000000000000e+00 0.0000000000000000e+00
4.4561542684318711e+00 0.0000000000000000e+00 0.0000000000000000e+00
4.4559793235116940e+00 0.0000000000000000e+00 0.0000000000000000e+00
4.4558093406348993e+00 0.0000000000000000e+00 0.0000000000000000e+00
4.4556443195712454e+00 0.0000000000000000e+00 0.0000000000000000e+00
4.4554842607174807e+00 0.0000000000000000e+00 0.0000000000000000e+00
4.4553291645811743e+00 0.0000000000000000e+00 0.0000000000000000e+00
4.4551790310170993e+00 0.0000000000000000e+00 0.0000000000000000e+00
4.4550338600480295e+00 0.0000000000000000e+00 0.0000000000000000e+00
4.4548936522242881e+00 0.0000000000000000e+00 0.0000000000000000e+00
4.4547584075460431e+00 0.0000000000000000e+00 0.0000000000000000e+00
4.4546281258032181e+00 0.0000000000000000e+00 0.0000000000000000e+00
4.4545028072756381e+00 0.0000000000000000e+00 0.0000000000000000e+00
4.4543824521997033e+00 0.0000000000000000e+00 0.0000000000000000e+00
4.4542670603630921e+00 0.0000000000000000e+00 0.0000000000000000e+00
4.4541566317603998e+00 0.0000000000000000e+00 0.0000000000000000e+00
4.4540511664173836e+00 0.0000000000000000e+00 0.0000000000000000e+00
4.4539506642612894e+00 0.0000000000000000e+00 0.0000000000000000e+00
4.4538551253353598e+00 0.0000000000000000e+00 0.0000000000000000e+00
4.4537645496122202e+00 0.0000000000000000e+00 0.0000000000000000e+00
4.4536789369400056e+00 0.0000000000000000e+00 0.0000000000000000e+00
4.4535982872094699e+00 0.0000000000000000e+00 0.0000000000000000e+00
4.4535226003503210e+00 0.0000000000000000e+00 0.0000000000000000e+00
4.4534518762730659e+00 0.0000000000000000e+00 0.0000000000000000e+00
4.4533861147848617e+00 0.0000000000000000e+00 0.0000000000000000e+00
4.4533253156889199e+00 0.0000000000000000e+00 0.0000000000000000e+00
4.4532694787343452e+00 0.0000000000000000e+00 0.0000000000000000e+00
4.4532186036808357e+00 0.0000000000000000e+00 0.0000000000000000e+00
4.4531726902703950e+00 0.0000000000000000e+00 0.0000000000000000e+00
4.4531317382062339e+00 0.0000000000000000e+00 0.0000000000000000e+00
4.4530957473601287e+00 0.0000000000000000e+00 0.0000000000000000e+00
4.4530647175402081e+00 0.0000000000000000e+00 0.0000000000000000e+00
4.4530386484416313e+00 0.0000000000000000e+00 0.0000000000000000e+00
4.4530175396312712e+00 0.0000000000000000e+00 0.0000000000000000e+00
4.4530013906038670e+00 0.0000000000000000e+00 0.0000000000000000e+00
4.4529902010997757e+00 0.0000000000000000e+00 0.0000000000000000e+00
4.4529839709404717e+00 0.0000000000000000e+00 0.0000000000000000e+00
4.4529827001289837e+00 0.0000000000000000e+00 0.0000000000000000e+00
4.4529863877482372e+00 0.0000000000000000e+00 0.0000000000000000e+00
4.4529950327949228e+00 0.0000000000000000e+00 0.0000000000000000e+00
4.4530086348934930e+00 0.0000000000000000e+00 0.0000000000000000e+00
4.4530271938508053e+00 0.0000000000000000e+00 0.0000000000000000e+00
4.4530507118467284e+00 0.0000000000000000e+00 0.0000000000000000e+00
4.4530791827078415e+00 0.0000000000000000e+00 0.0000000000000000e+00
4.4531126180362213e+00 0.0000000000000000e+00 0.0000000000000000e+00
4.4531509868612540e+00 0.0000000000000000e+00 0.0000000000000000e+00
4.4531943623834387e+00 0.0000000000000000e+00 0.0000000000000000e+00
4.4532425611364408e+00 0.0000000000000000e+00 0.0000000000000000e+00
4.4532960364175649e+00 0.0000000000000000e+00 0.0000000000000000e+00
4.4533536603214907e+00 0.0000000000000000e+00 0.0000000000000000e+00
4.4534182298160783e+00 0.0000000000000000e+00 0.0000000000000000e+00
4.4534827993106658e+00 0.0000000000000000e+00 0.0000000000000000e+00


SCALARS pressure float
LOOKUP_TABLE default
1.8968817165833212e+01
1.8782299396261571e+01
1.8595781626689931e+01
1.8409236265919290e+01
1.8222654295596204e+01
1.8036023315725448e+01
1.7849328517538137e+01
1.7662555796749519e+01
1.7475696848660181e+01
1.7288760672731094e+01
1.7101757015195620e+01
1.6914683596695504e+01
1.6727537549419548e+01
1.6540315119865532e+01
1.6353007752471836e+01
1.6165613787229123e+01
1.5978135550319406e+01
1.5790586842591301e+01
1.5602980368169328e+01
1.5415308232040733e+01
1.5227563596235214e+01
1.5039745940467235e+01
1.4851854323451647e+01
1.4663885746156302e+01
1.4475838591007420e+01
1.4287716723082431e+01
1.4099525811711985e+01
1.3911267043777471e+01
1.3722939365941704e+01
1.3534541966049328e+01
1.3346077076294458e+01
1.3157546637495566e+01
1.2968949627487563e+01
1.2780283742229983e+01
1.2591546094962844e+01
1.2402737621068558e+01
1.2213860066904649e+01
1.2024914346553242e+01
1.1835901351400071e+01
1.1646821014097709e+01
1.1457675607595245e+01
1.1268467329522252e+01
1.1079194974511280e+01
1.0889858115359786e+01
1.0700456707318912e+01
1.0510990888726125e+01
1.0321460887073695e+01
1.0131866973040951e+01
9.9422094404646177e+00
9.7524885899599632e+00
9.5627047262037941e+00
9.3728581589754629e+00
9.1829491955472324e+00
8.9929781462790164e+00
8.8029453229947592e+00
8.6128510350641090e+00
8.4226955909843113e+00
8.2324793015121323e+00
8.0422024768416076e+00
7.8518654249630702e+00
7.6614684556590484e+00
7.4710118796524050e+00
7.2804960056632142e+00
7.0899211421695307e+00
6.8992875992530882e+00
6.7085956862415879e+00
6.5178457121353084e+00
6.3270379861434733e+00
6.1361728169245060e+00
5.9452505132327538e+00
5.7542713842039426e+00
5.5632357387244538e+00
5.3721438853599519e+00
5.1809961325718978e+00
4.9897927891164002e+00
4.7985341636871572e+00
4.6072205650681832e+00
4.4158523019501628e+00
4.2244296829317198e+00
4.0329530166622671e+00
3.8414226110903633e+00
3.6498387740957194e+00
3.4582018138597670e+00
3.2665120390062268e+00
3.0747697586554468e+00
2.8829752808053173e+00
2.6911289125115831e+00
2.4992309597861464e+00
2.3072817324777262e+00
2.1152815413096282e+00
1.9232306946311530e+00
1.7311294993220196e+00
1.5389782525255986e+00
1.3467772826947997e+00
1.1545268534134234e+00
9.6222738515922968e-01
7.6987891357023763e-01
5.7748242270201966e-01
3.8503654168493384e-01
1.9254574957966383e-01
0.0000000000000000e+00


SCALARS diameter float
LOOKUP_TABLE default
1.0017158715191756e+00
1.0016963468007889e+00
1.0016779009216505e+00
1.0016612817210842e+00
1.0016456469763209e+00
1.0016299911809310e+00
1.0016136542288043e+00
1.0015962376712204e+00
1.0015786637084587e+00
1.0015621562409056e+00
1.0015459416727743e+00
1.0015297049939065e+00
1.0015133733812784e+00
1.0014963188098760e+00
1.0014783872060917e+00
1.0014602465874907e+00
1.0014423228051581e+00
1.0014261781425449e+00
1.0014100744429428e+00
1.0013935804681766e+00
1.0013769545563274e+00
1.0013603048208977e+00
1.0013432111518923e+00
1.0013256578387990e+00
1.0013078939747073e+00
1.0012905922859088e+00
1.0012735834098241e+00
1.0012565292935653e+00
1.0012394668836833e+00
1.0012224275540516e+00
1.0012057623195567e+00
1.0011890769336311e+00
1.0011723456582078e+00
1.0011552138420412e+00
1.0011379171277555e+00
1.0011206109264161e+00
1.0011032939784215e+00
1.0010859657867084e+00
1.0010686264958266e+00
1.0010512982819648e+00
1.0010343103653569e+00
1.0010173090915417e+00
1.0010002949830064e+00
1.0009832689042590e+00
1.0009662311746890e+00
1.0009491820477301e+00
1.0009321217992826e+00
1.0009150507658797e+00
1.0008979692871902e+00
1.0008808770919175e+00
1.0008637748620006e+00
1.0008466624801922e+00
1.0008295402011602e+00
1.0008124085120034e+00
1.0007952674659639e+00
1.0007781171354784e+00
1.0007609577882739e+00
1.0007437898014087e+00
1.0007266131077341e+00
1.0007094279560245e+00
1.0006922346977010e+00
1.0006750334452270e+00
1.0006578242631468e+00
1.0006406074908667e+00
1.0006233833459695e+00
1.0006061519568268e+00
1.0005889135724102e+00
1.0005716683434773e+00
1.0005544164511344e+00
1.0005371581204938e+00
1.0005198935597346e+00
1.0005026229270411e+00
1.0004853464152914e+00
1.0004680642184398e+00
1.0004507765662907e+00
1.0004334836299094e+00
1.0004161856537812e+00
1.0003988827800425e+00
1.0003815752591014e+00
1.0003642632146592e+00
1.0003469467880151e+00
1.0003296262017873e+00
1.0003123016752269e+00
1.0002949734606705e+00
1.0002776417127603e+00
1.0002603064669078e+00
1.0002429679496363e+00
1.0002256263119473e+00
1.0002082822844727e+00
1.0001909355933170e+00
1.0001735866509340e+00
1.0001562346296622e+00
1.0001388808751561e+00
1.0001215249865947e+00
1.0001041676428843e+00
1.0000868088650179e+00
1.0000694488230446e+00
1.0000520877002990e+00
1.0000347258159812e+00
1.0000173634242371e+00
1.0000000000246909e+00


SCALARS iters float
LOOKUP_TABLE default
3.0000000000000000e+00
3.0000000000000000e+00
3.0000000000000000e+00
3.0000000000000000e+00
3.0000000000000000e+00
3.0000000000000000e+00
3.0000000000000000e+00
3.0000000000000000e+00
3.0000000000000000e+00
3.0000000000000000e+00
3.0000000000000000e+00
3.0000000000000000e+00
3.0000000000000000e+00
3.0000000000000000e+00
3.0000000000000000e+00
3.0000000000000000e+00
3.0000000000000000e+00
3.0000000000000000e+00
3.0000000000000000e+00
3.0000000000000000e+00
3.0000000000000000e+00
3.0000000000000000e+00
3.0000000000000000e+00
3.0000000000000000e+00
3.0000000000000000e+00
3.0000000000000000e+00
3.0000000000000000e+00
3.0000000000000000e+00
3.0000000000000000e+00
3.0000000000000000e+00
3.0000000000000000e+00
3.0000000000000000e+00
3.0000000000000000e+00
3.0000000000000000e+00
3.0000000000000000e+00
3.0000000000000000e+00
3.0000000000000000e+00
3.0000000000000000e+00
3.0000000000000000e+00
3.0000000000000000e+00
3.0000000000000000e+00
3.0000000000000000e+00
3.0000000000000000e+00
3.0000000000000000e+00
3.0000000000000000e+00
3.0000000000000000e+00
3.0000000000000000e+00
3.0000000000000000e+00
3.0000000000000000e+00
3.0000000000000000e+00
3.0000000000000000e+00
3.0000000000000000e+00
3.0000000000000000e+00
3.0000000000000000e+00
3.0000000000000000e+00
3.0000000000000000e+00
3.0000000000000000e+00
3.0000000000000000e+00
3.0000000000000000e+00
3.0000000000000000e+00
3.0000000000000000e+00
3.0000000000000000e+00
3.0000000000000000e+00
3.0000000000000000e+00
3.0000000000000000e+00
3.0000000000000000e+00
3.0000000000000000e+00
3.0000000000000000e+00
3.0000000000000000e+00
3.0000000000000000e+00
3.0000000000000000e+00
3.0000000000000000e+00
3.0000000000000000e+00
3.0000000000000000e+00
3.0000000000000000e+00
3.0000000000000000e+00
3.0000000000000000e+00
3.0000000000000000e+00
3.0000000000000000e+00
3.0000000000000000e+00
3.0000000000000000e+00
3.0000000000000000e+00
3.0000000000000000e+00
3.0000000000000000e+00
3.0000000000000000e+00
3.0000000000000000e+00
3.0000000000000000e+00
3.0000000000000000e+00
3.0000000000000000e+00
3.0000000000000000e+00
3.0000000000000000e+00
3.0000000000000000e+00
3.0000000000000000e+00
3.0000000000000000e+00
3.0000000000000000e+00
3.0000000000000000e+00
3.0000000000000000e+00
3.0000000000000000e+00
3.0000000000000000e+00
3.0000000000000000e+00
3.0000000000000000e+00


