# vtk DataFile Version 2.0

ASCII

DATASET UNSTRUCTURED_GRID

POINTS 101 float

0.0000000000000000e+00 0.0000000000000000e+00 0.0000000000000000e+00
1.0000000000000001e-01 0.0000000000000000e+00 0.0000000000000000e+00
2.0000000000000001e-01 0.0000000000000000e+00 0.0000000000000000e+00
3.0000000000000004e-01 0.0000000000000000e+00 0.0000000000000000e+00
4.0000000000000002e-01 0.0000000000000000e+00 0.0000000000000000e+00
5.0000000000000000e-01 0.0000000000000000e+00 0.0000000000000000e+00
6.0000000000000009e-01 0.0000000000000000e+00 0.0000000000000000e+00
7.0000000000000007e-01 0.0000000000000000e+00 0.0000000000000000e+00
8.0000000000000004e-01 0.0000000000000000e+00 0.0000000000000000e+00
9.0000000000000002e-01 0.0000000000000000e+00 0.0000000000000000e+00
1.0000000000000000e+00 0.0000000000000000e+00 0.0000000000000000e+00
1.1000000000000001e+00 0.0000000000000000e+00 0.0000000000000000e+00
1.2000000000000002e+00 0.0000000000000000e+00 0.0000000000000000e+00
1.3000000000000000e+00 0.0000000000000000e+00 0.0000000000000000e+00
1.4000000000000001e+00 0.0000000000000000e+00 0.0000000000000000e+00
1.5000000000000000e+00 0.0000000000000000e+00 0.0000000000000000e+00
1.6000000000000001e+00 0.0000000000000000e+00 0.0000000000000000e+00
1.7000000000000002e+00 0.0000000000000000e+00 0.0000000000000000e+00
1.8000000000000000e+00 0.0000000000000000e+00 0.0000000000000000e+00
1.9000000000000001e+00 0.0000000000000000e+00 0.0000000000000000e+00
2.0000000000000000e+00 0.0000000000000000e+00 0.0000000000000000e+00
2.1000000000000001e+00 0.0000000000000000e+00 0.0000000000000000e+00
2.2000000000000002e+00 0.0000000000000000e+00 0.0000000000000000e+00
2.3000000000000003e+00 0.0000000000000000e+00 0.0000000000000000e+00
2.4000000000000004e+00 0.0000000000000000e+00 0.0000000000000000e+00
2.5000000000000000e+00 0.0000000000000000e+00 0.0000000000000000e+00
2.6000000000000001e+00 0.0000000000000000e+00 0.0000000000000000e+00
2.7000000000000002e+00 0.0000000000000000e+00 0.0000000000000000e+00
2.8000000000000003e+00 0.0000000000000000e+00 0.0000000000000000e+00
2.9000000000000004e+00 0.0000000000000000e+00 0.0000000000000000e+00
3.0000000000000000e+00 0.0000000000000000e+00 0.0000000000000000e+00
3.1000000000000001e+00 0.0000000000000000e+00 0.0000000000000000e+00
3.2000000000000002e+00 0.0000000000000000e+00 0.0000000000000000e+00
3.3000000000000003e+00 0.0000000000000000e+00 0.0000000000000000e+00
3.4000000000000004e+00 0.0000000000000000e+00 0.0000000000000000e+00
3.5000000000000000e+00 0.0000000000000000e+00 0.0000000000000000e+00
3.6000000000000001e+00 0.0000000000000000e+00 0.0000000000000000e+00
3.7000000000000002e+00 0.0000000000000000e+00 0.0000000000000000e+00
3.8000000000000003e+00 0.0000000000000000e+00 0.0000000000000000e+00
3.9000000000000004e+00 0.0000000000000000e+00 0.0000000000000000e+00
4.0000000000000000e+00 0.0000000000000000e+00 0.0000000000000000e+00
4.1000000000000005e+00 0.0000000000000000e+00 0.0000000000000000e+00
4.2000000000000002e+00 0.0000000000000000e+00 0.0000000000000000e+00
4.2999999999999998e+00 0.0000000000000000e+00 0.0000000000000000e+00
4.4000000000000004e+00 0.0000000000000000e+00 0.0000000000000000e+00
4.5000000000000000e+00 0.0000000000000000e+00 0.0000000000000000e+00
4.6000000000000005e+00 0.0000000000000000e+00 0.0000000000000000e+00
4.7000000000000002e+00 0.0000000000000000e+00 0.0000000000000000e+00
4.8000000000000007e+00 0.0000000000000000e+00 0.0000000000000000e+00
4.9000000000000004e+00 0.0000000000000000e+00 0.0000000000000000e+00
5.0000000000000000e+00 0.0000000000000000e+00 0.0000000000000000e+00
5.1000000000000005e+00 0.0000000000000000e+00 0.0000000000000000e+00
5.2000000000000002e+00 0.0000000000000000e+00 0.0000000000000000e+00
5.3000000000000007e+00 0.0000000000000000e+00 0.0000000000000000e+00
5.4000000000000004e+00 0.0000000000000000e+00 0.0000000000000000e+00
5.5000000000000000e+00 0.0000000000000000e+00 0.0000000000000000e+00
5.6000000000000005e+00 0.0000000000000000e+00 0.0000000000000000e+00
5.7000000000000002e+00 0.0000000000000000e+00 0.0000000000000000e+00
5.8000000000000007e+00 0.0000000000000000e+00 0.0000000000000000e+00
5.9000000000000004e+00 0.0000000000000000e+00 0.0000000000000000e+00
6.0000000000000000e+00 0.0000000000000000e+00 0.0000000000000000e+00
6.1000000000000005e+00 0.0000000000000000e+00 0.0000000000000000e+00
6.2000000000000002e+00 0.0000000000000000e+00 0.0000000000000000e+00
6.3000000000000007e+00 0.0000000000000000e+00 0.0000000000000000e+00
6.4000000000000004e+00 0.0000000000000000e+00 0.0000000000000000e+00
6.5000000000000000e+00 0.0000000000000000e+00 0.0000000000000000e+00
6.6000000000000005e+00 0.0000000000000000e+00 0.0000000000000000e+00
6.7000000000000002e+00 0.0000000000000000e+00 0.0000000000000000e+00
6.8000000000000007e+00 0.0000000000000000e+00 0.0000000000000000e+00
6.9000000000000004e+00 0.0000000000000000e+00 0.0000000000000000e+00
7.0000000000000000e+00 0.0000000000000000e+00 0.0000000000000000e+00
7.1000000000000005e+00 0.0000000000000000e+00 0.0000000000000000e+00
7.2000000000000002e+00 0.0000000000000000e+00 0.0000000000000000e+00
7.3000000000000007e+00 0.0000000000000000e+00 0.0000000000000000e+00
7.4000000000000004e+00 0.0000000000000000e+00 0.0000000000000000e+00
7.5000000000000000e+00 0.0000000000000000e+00 0.0000000000000000e+00
7.6000000000000005e+00 0.0000000000000000e+00 0.0000000000000000e+00
7.7000000000000002e+00 0.0000000000000000e+00 0.0000000000000000e+00
7.8000000000000007e+00 0.0000000000000000e+00 0.0000000000000000e+00
7.9000000000000004e+00 0.0000000000000000e+00 0.0000000000000000e+00
8.0000000000000000e+00 0.0000000000000000e+00 0.0000000000000000e+00
8.0999999999999996e+00 0.0000000000000000e+00 0.0000000000000000e+00
8.2000000000000011e+00 0.0000000000000000e+00 0.0000000000000000e+00
8.3000000000000007e+00 0.0000000000000000e+00 0.0000000000000000e+00
8.4000000000000004e+00 0.0000000000000000e+00 0.0000000000000000e+00
8.5000000000000000e+00 0.0000000000000000e+00 0.0000000000000000e+00
8.5999999999999996e+00 0.0000000000000000e+00 0.0000000000000000e+00
8.7000000000000011e+00 0.0000000000000000e+00 0.0000000000000000e+00
8.8000000000000007e+00 0.0000000000000000e+00 0.0000000000000000e+00
8.9000000000000004e+00 0.0000000000000000e+00 0.0000000000000000e+00
9.0000000000000000e+00 0.0000000000000000e+00 0.0000000000000000e+00
9.0999999999999996e+00 0.0000000000000000e+00 0.0000000000000000e+00
9.2000000000000011e+00 0.0000000000000000e+00 0.0000000000000000e+00
9.3000000000000007e+00 0.0000000000000000e+00 0.0000000000000000e+00
9.4000000000000004e+00 0.0000000000000000e+00 0.0000000000000000e+00
9.5000000000000000e+00 0.0000000000000000e+00 0.0000000000000000e+00
9.6000000000000014e+00 0.0000000000000000e+00 0.0000000000000000e+00
9.7000000000000011e+00 0.0000000000000000e+00 0.0000000000000000e+00
9.8000000000000007e+00 0.0000000000000000e+00 0.0000000000000000e+00
9.9000000000000004e+00 0.0000000000000000e+00 0.0000000000000000e+00
1.0000000000000000e+01 0.0000000000000000e+00 0.0000000000000000e+00

POINT_DATA 101

VECTORS velocity float
4.0929011134835473e+00 0.0000000000000000e+00 0.0000000000000000e+00
4.0924385507641770e+00 0.0000000000000000e+00 0.0000000000000000e+00
4.0919790416358293e+00 0.0000000000000000e+00 0.0000000000000000e+00
4.0915220035565403e+00 0.0000000000000000e+00 0.0000000000000000e+00
4.0910683608713825e+00 0.0000000000000000e+00 0.0000000000000000e+00
4.0906192344482637e+00 0.0000000000000000e+00 0.0000000000000000e+00
4.0901766327422457e+00 0.0000000000000000e+00 0.0000000000000000e+00
4.0897420605166763e+00 0.0000000000000000e+00 0.0000000000000000e+00
4.0893121875663470e+00 0.0000000000000000e+00 0.0000000000000000e+00
4.0888837513992780e+00 0.0000000000000000e+00 0.0000000000000000e+00
4.0884579610059095e+00 0.0000000000000000e+00 0.0000000000000000e+00
4.0880360162255931e+00 0.0000000000000000e+00 0.0000000000000000e+00
4.0876185383406627e+00 0.0000000000000000e+00 0.0000000000000000e+00
4.0872072036322127e+00 0.0000000000000000e+00 0.0000000000000000e+00
4.0868026639990225e+00 0.0000000000000000e+00 0.0000000000000000e+00
4.0864045913189635e+00 0.0000000000000000e+00 0.0000000000000000e+00
4.0860111738308165e+00 0.0000000000000000e+00 0.0000000000000000e+00
4.0856203816473835e+00 0.0000000000000000e+00 0.0000000000000000e+00
4.0852328234117010e+00 0.0000000000000000e+00 0.0000000000000000e+00
4.0848491391784041e+00 0.0000000000000000e+00 0.0000000000000000e+00
4.0844697823450566e+00 0.0000000000000000e+00 0.0000000000000000e+00
4.0840957816213512e+00 0.0000000000000000e+00 0.0000000000000000e+00
4.0837278799953847e+00 0.0000000000000000e+00 0.0000000000000000e+00
4.0833663785693393e+00 0.0000000000000000e+00 0.0000000000000000e+00
4.0830090024944710e+00 0.0000000000000000e+00 0.0000000000000000e+00
4.0826550084374267e+00 0.0000000000000000e+00 0.0000000000000000e+00
4.0823059764407823e+00 0.0000000000000000e+00 0.0000000000000000e+00
4.0819617658363354e+00 0.0000000000000000e+00 0.0000000000000000e+00
4.0816224016963707e+00 0.0000000000000000e+00 0.0000000000000000e+00
4.0812874198633615e+00 0.0000000000000000e+00 0.0000000000000000e+00
4.0809564979141602e+00 0.0000000000000000e+00 0.0000000000000000e+00
4.0806299597116791e+00 0.0000000000000000e+00 0.0000000000000000e+00
4.0803082182471995e+00 0.0000000000000000e+00 0.0000000000000000e+00
4.0799917264183394e+00 0.0000000000000000e+00 0.0000000000000000e+00
4.0796803329264399e+00 0.0000000000000000e+00 0.0000000000000000e+00
4.0793738278052203e+00 0.0000000000000000e+00 0.0000000000000000e+00
4.0790721454985128e+00 0.0000000000000000e+00 0.0000000000000000e+00
4.0787752117322214e+00 0.0000000000000000e+00 0.0000000000000000e+00
4.0784831050005321e+00 0.0000000000000000e+00 0.0000000000000000e+00
4.0781955166499388e+00 0.0000000000000000e+00 0.0000000000000000e+00
4.0779121724970162e+00 0.0000000000000000e+00 0.0000000000000000e+00
4.0776333626347725e+00 0.0000000000000000e+00 0.0000000000000000e+00
4.0773591879363904e+00 0.0000000000000000e+00 0.0000000000000000e+00
4.0770896942596284e+00 0.0000000000000000e+00 0.0000000000000000e+00
4.0768249026521284e+00 0.0000000000000000e+00 0.0000000000000000e+00
4.0765648228045128e+00 0.0000000000000000e+00 0.0000000000000000e+00
4.0763094592329114e+00 0.0000000000000000e+00 0.0000000000000000e+00
4.0760588140047629e+00 0.0000000000000000e+00 0.0000000000000000e+00
4.0758128886666896e+00 0.0000000000000000e+00 0.0000000000000000e+00
4.0755716841729983e+00 0.0000000000000000e+00 0.0000000000000000e+00
4.0753352006643162e+00 0.0000000000000000e+00 0.0000000000000000e+00
4.0751034387542431e+00 0.0000000000000000e+00 0.0000000000000000e+00
4.0748763988095824e+00 0.0000000000000000e+00 0.0000000000000000e+00
4.0746540809576262e+00 0.0000000000000000e+00 0.0000000000000000e+00
4.0744364856504296e+00 0.0000000000000000e+00 0.0000000000000000e+00
4.0742236135097052e+00 0.0000000000000000e+00 0.0000000000000000e+00
4.0740154643567514e+00 0.0000000000000000e+00 0.0000000000000000e+00
4.0738120383058050e+00 0.0000000000000000e+00 0.0000000000000000e+00
4.0736133361963436e+00 0.0000000000000000e+00 0.0000000000000000e+00
4.0734193583097111e+00 0.0000000000000000e+00 0.0000000000000000e+00
4.0732301047294079e+00 0.0000000000000000e+00 0.0000000000000000e+00
4.0730455757294406e+00 0.0000000000000000e+00 0.0000000000000000e+00
4.0728657715821877e+00 0.0000000000000000e+00 0.0000000000000000e+00
4.0726906922523147e+00 0.0000000000000000e+00 0.0000000000000000e+00
4.0725203378655577e+00 0.0000000000000000e+00 0.0000000000000000e+00
4.0723547086113685e+00 0.0000000000000000e+00 0.0000000000000000e+00
4.0721938045629127e+00 0.0000000000000000e+00 0.0000000000000000e+00
4.0720376259141506e+00 0.0000000000000000e+00 0.0000000000000000e+00
4.0718861728189104e+00 0.0000000000000000e+00 0.0000000000000000e+00
4.0717394453035585e+00 0.0000000000000000e+00 0.0000000000000000e+00
4.0715974434054836e+00 0.0000000000000000e+00 0.0000000000000000e+00
4.0714601671595299e+00 0.0000000000000000e+00 0.0000000000000000e+00
4.0713276165876042e+00 0.0000000000000000e+00 0.0000000000000000e+00
4.0711997917134646e+00 0.0000000000000000e+00 0.0000000000000000e+00
4.0710766925364963e+00 0.0000000000000000e+00 0.0000000000000000e+00
4.0709583189441805e+00 0.0000000000000000e+00 0.0000000000000000e+00
4.0708446710270669e+00 0.0000000000000000e+00 0.0000000000000000e+00
4.0707357485380946e+00 0.0000000000000000e+00 0.0000000000000000e+00
4.0706315514691269e+00 0.0000000000000000e+00 0.0000000000000000e+00
4.0705320801046652e+00 0.0000000000000000e+00 0.0000000000000000e+00
4.0704373339964341e+00 0.0000000000000000e+00 0.0000000000000000e+00
4.0703473129197016e+00 0.0000000000000000e+00 0.0000000000000000e+00
4.0702620166270691e+00 0.0000000000000000e+00 0.0000000000000000e+00
4.0701814456364671e+00 0.0000000000000000e+00 0.0000000000000000e+00
4.0701055994766842e+00 0.0000000000000000e+00 0.0000000000000000e+00
4.0700344769719345e+00 0.0000000000000000e+00 0.0000000000000000e+00
4.0699680778500804e+00 0.0000000000000000e+00 0.0000000000000000e+00
4.0699064025451657e+00 0.0000000000000000e+00 0.0000000000000000e+00
4.0698494511945675e+00 0.0000000000000000e+00 0.0000000000000000e+00
4.0697972235408830e+00 0.0000000000000000e+00 0.0000000000000000e+00
4.0697497189134593e+00 0.0000000000000000e+00 0.0000000000000000e+00
4.0697069381589124e+00 0.0000000000000000e+00 0.0000000000000000e+00
4.0696688763685449e+00 0.0000000000000000e+00 0.0000000000000000e+00
4.0696355455702076e+00 0.0000000000000000e+00 0.0000000000000000e+00
4.0696069158618737e+00 0.0000000000000000e+00 0.0000000000000000e+00
4.0695830578793153e+00 0.0000000000000000e+00 0.0000000000000000e+00
4.0695637951507679e+00 0.0000000000000000e+00 0.0000000000000000e+00
4.0695495633874552e+00 0.0000000000000000e+00 0.0000000000000000e+00
4.0695392820243894e+00 0.0000000000000000e+00 0.0000000000000000e+00
4.0695356251990296e+00 0.0000000000000000e+00 0.0000000000000000e+00
4.0695319683736697e+00 0.0000000000000000e+00 0.0000000000000000e+00


SCALARS pressure float
LOOKUP_TABLE default
1.9104393326899149e+00
1.8924448143663479e+00
1.8744502960427809e+00
1.8564461914874266e+00
1.8384348609902916e+00
1.8204136682232697e+00
1.8023783500599944e+00
1.7843208773629189e+00
1.7662349409531166e+00
1.7481323076680091e+00
1.7300255205968500e+00
1.7119104606207300e+00
1.6937819052692200e+00
1.6756366746706897e+00
1.6574677852333066e+00
1.6392719665170277e+00
1.6210499744173168e+00
1.6028089233820306e+00
1.5845572293798467e+00
1.5662928295329923e+00
1.5480125307336701e+00
1.5297139554612673e+00
1.5113929137466182e+00
1.4930462413358645e+00
1.4746724985755055e+00
1.4562795508084305e+00
1.4378701271871897e+00
1.4194385133730112e+00
1.4009846609226440e+00
1.3825082747858670e+00
1.3640108833458493e+00
1.3454936520871095e+00
1.3269552734822250e+00
1.3083938783668199e+00
1.2898073189423034e+00
1.2711957098297715e+00
1.2525595906107925e+00
1.2338989980695620e+00
1.2152139727360012e+00
1.1965039705900282e+00
1.1777699032832702e+00
1.1590127079084089e+00
1.1402311636098088e+00
1.1214245854236971e+00
1.1025925318584473e+00
1.0837346717297758e+00
1.0648507246856509e+00
1.0459404338185554e+00
1.0270035538233233e+00
1.0080398429338209e+00
9.8904906260687697e-01
9.7003097832606722e-01
9.5098535473375356e-01
9.3191195811520855e-01
9.1281055654674648e-01
8.9368091772587765e-01
8.7452280938222404e-01
8.5533600293296208e-01
8.3612026960535957e-01
8.1687537860260917e-01
7.9760110177058741e-01
7.7829721258673024e-01
7.5896348452272155e-01
7.3959969168494177e-01
7.2020561002588179e-01
7.0078101563989259e-01
6.8132568499524193e-01
6.6183939561009453e-01
6.4232192520012654e-01
6.2277305221666801e-01
6.0319255619934731e-01
5.8358021726784659e-01
5.6393581611495947e-01
5.4425913405010806e-01
5.2454995297683726e-01
5.0480805545147456e-01
4.8503322502745128e-01
4.6522524506954338e-01
4.4538390066172401e-01
4.2550897656537318e-01
4.0560025700406771e-01
3.8565752929446634e-01
3.6568058052855468e-01
3.4566919833151188e-01
3.2562316811872277e-01
3.0554227924424848e-01
2.8542632397806961e-01
2.6527509176322450e-01
2.4508836968706432e-01
2.2486594663879134e-01
2.0460761342125353e-01
1.8431316278541143e-01
1.6398238165048729e-01
1.4361507904353857e-01
1.2321100182654580e-01
1.0277005167438170e-01
8.2291760441795148e-02
6.1776570420294580e-02
4.1222669831655796e-02
2.0633829427695642e-02
0.0000000000000000e+00


SCALARS diameter float
LOOKUP_TABLE default
1.0001723567780307e+00
1.0001707237137882e+00
1.0001686390352031e+00
1.0001674878595708e+00
1.0001665125345165e+00
1.0001654969835700e+00
1.0001637738072304e+00
1.0001608957300938e+00
1.0001578577006245e+00
1.0001565113835462e+00
1.0001556524320039e+00
1.0001547595279063e+00
1.0001538279261204e+00
1.0001524508647903e+00
1.0001502359704264e+00
1.0001477551355726e+00
1.0001452282710328e+00
1.0001437690969057e+00
1.0001425848849954e+00
1.0001414758857221e+00
1.0001403798799617e+00
1.0001390781814621e+00
1.0001371956515286e+00
1.0001348918288298e+00
1.0001326095815837e+00
1.0001313476909055e+00
1.0001296635904038e+00
1.0001279118613531e+00
1.0001261577317824e+00
1.0001244269958272e+00
1.0001230139246451e+00
1.0001215879755914e+00
1.0001201268097644e+00
1.0001184026799603e+00
1.0001165749684147e+00
1.0001147418659062e+00
1.0001129028608502e+00
1.0001110580208437e+00
1.0001092070805986e+00
1.0001073663045430e+00
1.0001057638512532e+00
1.0001041517287075e+00
1.0001025311763587e+00
1.0001009029235475e+00
1.0000992672886706e+00
1.0000976245466544e+00
1.0000959749125744e+00
1.0000943186088445e+00
1.0000926557339946e+00
1.0000909861842577e+00
1.0000893104108561e+00
1.0000876284208329e+00
1.0000859402924789e+00
1.0000842463016941e+00
1.0000825464896019e+00
1.0000808408608566e+00
1.0000791296325868e+00
1.0000774131843959e+00
1.0000756912200819e+00
1.0000739639172265e+00
1.0000722314848594e+00
1.0000704940128855e+00
1.0000687515513422e+00
1.0000670043133968e+00
1.0000652524531348e+00
1.0000634960037864e+00
1.0000617351377077e+00
1.0000599699268156e+00
1.0000582004558074e+00
1.0000564268648731e+00
1.0000546492828233e+00
1.0000528678040832e+00
1.0000510825545519e+00
1.0000492936283294e+00
1.0000475011431542e+00
1.0000457052185370e+00
1.0000439059692616e+00
1.0000421034493692e+00
1.0000402979221001e+00
1.0000384891733018e+00
1.0000366775121319e+00
1.0000348631307714e+00
1.0000330460606897e+00
1.0000312263358175e+00
1.0000294038229254e+00
1.0000275793579310e+00
1.0000257528219521e+00
1.0000239242040527e+00
1.0000220932901402e+00
1.0000202603808650e+00
1.0000184255733902e+00
1.0000165888554935e+00
1.0000147509556996e+00
1.0000129109672307e+00
1.0000110697801794e+00
1.0000092273524162e+00
1.0000073837543419e+00
1.0000055391055529e+00
1.0000036934596725e+00
1.0000018470437568e+00
1.0000000000148179e+00


SCALARS iters float
LOOKUP_TABLE default
4.0000000000000000e+00
4.0000000000000000e+00
4.0000000000000000e+00
4.0000000000000000e+00
4.0000000000000000e+00
4.0000000000000000e+00
4.0000000000000000e+00
4.0000000000000000e+00
4.0000000000000000e+00
4.0000000000000000e+00
4.0000000000000000e+00
4.0000000000000000e+00
4.0000000000000000e+00
4.0000000000000000e+00
4.0000000000000000e+00
4.0000000000000000e+00
4.0000000000000000e+00
4.0000000000000000e+00
4.0000000000000000e+00
4.0000000000000000e+00
4.0000000000000000e+00
4.0000000000000000e+00
4.0000000000000000e+00
4.0000000000000000e+00
4.0000000000000000e+00
4.0000000000000000e+00
4.0000000000000000e+00
4.0000000000000000e+00
4.0000000000000000e+00
4.0000000000000000e+00
4.0000000000000000e+00
4.0000000000000000e+00
4.0000000000000000e+00
4.0000000000000000e+00
4.0000000000000000e+00
4.0000000000000000e+00
4.0000000000000000e+00
4.0000000000000000e+00
4.0000000000000000e+00
4.0000000000000000e+00
4.0000000000000000e+00
4.0000000000000000e+00
4.0000000000000000e+00
4.0000000000000000e+00
4.0000000000000000e+00
4.0000000000000000e+00
4.0000000000000000e+00
4.0000000000000000e+00
4.0000000000000000e+00
4.0000000000000000e+00
4.0000000000000000e+00
4.0000000000000000e+00
4.0000000000000000e+00
4.0000000000000000e+00
4.0000000000000000e+00
4.0000000000000000e+00
4.0000000000000000e+00
4.0000000000000000e+00
4.0000000000000000e+00
4.0000000000000000e+00
4.0000000000000000e+00
4.0000000000000000e+00
4.0000000000000000e+00
4.0000000000000000e+00
4.0000000000000000e+00
4.0000000000000000e+00
4.0000000000000000e+00
4.0000000000000000e+00
4.0000000000000000e+00
4.0000000000000000e+00
4.0000000000000000e+00
4.0000000000000000e+00
4.0000000000000000e+00
4.0000000000000000e+00
4.0000000000000000e+00
4.0000000000000000e+00
4.0000000000000000e+00
4.0000000000000000e+00
4.0000000000000000e+00
4.0000000000000000e+00
4.0000000000000000e+00
4.0000000000000000e+00
4.0000000000000000e+00
4.0000000000000000e+00
4.0000000000000000e+00
4.0000000000000000e+00
4.0000000000000000e+00
4.0000000000000000e+00
4.0000000000000000e+00
4.0000000000000000e+00
4.0000000000000000e+00
4.0000000000000000e+00
4.0000000000000000e+00
4.0000000000000000e+00
4.0000000000000000e+00
4.0000000000000000e+00
4.0000000000000000e+00
4.0000000000000000e+00
4.0000000000000000e+00
4.0000000000000000e+00
4.0000000000000000e+00


