# vtk DataFile Version 2.0

ASCII

DATASET UNSTRUCTURED_GRID

POINTS 101 float

0.0000000000000000e+00 0.0000000000000000e+00 0.0000000000000000e+00
1.0000000000000001e-01 0.0000000000000000e+00 0.0000000000000000e+00
2.0000000000000001e-01 0.0000000000000000e+00 0.0000000000000000e+00
3.0000000000000004e-01 0.0000000000000000e+00 0.0000000000000000e+00
4.0000000000000002e-01 0.0000000000000000e+00 0.0000000000000000e+00
5.0000000000000000e-01 0.0000000000000000e+00 0.0000000000000000e+00
6.0000000000000009e-01 0.0000000000000000e+00 0.0000000000000000e+00
7.0000000000000007e-01 0.0000000000000000e+00 0.0000000000000000e+00
8.0000000000000004e-01 0.0000000000000000e+00 0.0000000000000000e+00
9.0000000000000002e-01 0.0000000000000000e+00 0.0000000000000000e+00
1.0000000000000000e+00 0.0000000000000000e+00 0.0000000000000000e+00
1.1000000000000001e+00 0.0000000000000000e+00 0.0000000000000000e+00
1.2000000000000002e+00 0.0000000000000000e+00 0.0000000000000000e+00
1.3000000000000000e+00 0.0000000000000000e+00 0.0000000000000000e+00
1.4000000000000001e+00 0.0000000000000000e+00 0.0000000000000000e+00
1.5000000000000000e+00 0.0000000000000000e+00 0.0000000000000000e+00
1.6000000000000001e+00 0.0000000000000000e+00 0.0000000000000000e+00
1.7000000000000002e+00 0.0000000000000000e+00 0.0000000000000000e+00
1.8000000000000000e+00 0.0000000000000000e+00 0.0000000000000000e+00
1.9000000000000001e+00 0.0000000000000000e+00 0.0000000000000000e+00
2.0000000000000000e+00 0.0000000000000000e+00 0.0000000000000000e+00
2.1000000000000001e+00 0.0000000000000000e+00 0.0000000000000000e+00
2.2000000000000002e+00 0.0000000000000000e+00 0.0000000000000000e+00
2.3000000000000003e+00 0.0000000000000000e+00 0.0000000000000000e+00
2.4000000000000004e+00 0.0000000000000000e+00 0.0000000000000000e+00
2.5000000000000000e+00 0.0000000000000000e+00 0.0000000000000000e+00
2.6000000000000001e+00 0.0000000000000000e+00 0.0000000000000000e+00
2.7000000000000002e+00 0.0000000000000000e+00 0.0000000000000000e+00
2.8000000000000003e+00 0.0000000000000000e+00 0.0000000000000000e+00
2.9000000000000004e+00 0.0000000000000000e+00 0.0000000000000000e+00
3.0000000000000000e+00 0.0000000000000000e+00 0.0000000000000000e+00
3.1000000000000001e+00 0.0000000000000000e+00 0.0000000000000000e+00
3.2000000000000002e+00 0.0000000000000000e+00 0.0000000000000000e+00
3.3000000000000003e+00 0.0000000000000000e+00 0.0000000000000000e+00
3.4000000000000004e+00 0.0000000000000000e+00 0.0000000000000000e+00
3.5000000000000000e+00 0.0000000000000000e+00 0.0000000000000000e+00
3.6000000000000001e+00 0.0000000000000000e+00 0.0000000000000000e+00
3.7000000000000002e+00 0.0000000000000000e+00 0.0000000000000000e+00
3.8000000000000003e+00 0.0000000000000000e+00 0.0000000000000000e+00
3.9000000000000004e+00 0.0000000000000000e+00 0.0000000000000000e+00
4.0000000000000000e+00 0.0000000000000000e+00 0.0000000000000000e+00
4.1000000000000005e+00 0.0000000000000000e+00 0.0000000000000000e+00
4.2000000000000002e+00 0.0000000000000000e+00 0.0000000000000000e+00
4.2999999999999998e+00 0.0000000000000000e+00 0.0000000000000000e+00
4.4000000000000004e+00 0.0000000000000000e+00 0.0000000000000000e+00
4.5000000000000000e+00 0.0000000000000000e+00 0.0000000000000000e+00
4.6000000000000005e+00 0.0000000000000000e+00 0.0000000000000000e+00
4.7000000000000002e+00 0.0000000000000000e+00 0.0000000000000000e+00
4.8000000000000007e+00 0.0000000000000000e+00 0.0000000000000000e+00
4.9000000000000004e+00 0.0000000000000000e+00 0.0000000000000000e+00
5.0000000000000000e+00 0.0000000000000000e+00 0.0000000000000000e+00
5.1000000000000005e+00 0.0000000000000000e+00 0.0000000000000000e+00
5.2000000000000002e+00 0.0000000000000000e+00 0.0000000000000000e+00
5.3000000000000007e+00 0.0000000000000000e+00 0.0000000000000000e+00
5.4000000000000004e+00 0.0000000000000000e+00 0.0000000000000000e+00
5.5000000000000000e+00 0.0000000000000000e+00 0.0000000000000000e+00
5.6000000000000005e+00 0.0000000000000000e+00 0.0000000000000000e+00
5.7000000000000002e+00 0.0000000000000000e+00 0.0000000000000000e+00
5.8000000000000007e+00 0.0000000000000000e+00 0.0000000000000000e+00
5.9000000000000004e+00 0.0000000000000000e+00 0.0000000000000000e+00
6.0000000000000000e+00 0.0000000000000000e+00 0.0000000000000000e+00
6.1000000000000005e+00 0.0000000000000000e+00 0.0000000000000000e+00
6.2000000000000002e+00 0.0000000000000000e+00 0.0000000000000000e+00
6.3000000000000007e+00 0.0000000000000000e+00 0.0000000000000000e+00
6.4000000000000004e+00 0.0000000000000000e+00 0.0000000000000000e+00
6.5000000000000000e+00 0.0000000000000000e+00 0.0000000000000000e+00
6.6000000000000005e+00 0.0000000000000000e+00 0.0000000000000000e+00
6.7000000000000002e+00 0.0000000000000000e+00 0.0000000000000000e+00
6.8000000000000007e+00 0.0000000000000000e+00 0.0000000000000000e+00
6.9000000000000004e+00 0.0000000000000000e+00 0.0000000000000000e+00
7.0000000000000000e+00 0.0000000000000000e+00 0.0000000000000000e+00
7.1000000000000005e+00 0.0000000000000000e+00 0.0000000000000000e+00
7.2000000000000002e+00 0.0000000000000000e+00 0.0000000000000000e+00
7.3000000000000007e+00 0.0000000000000000e+00 0.0000000000000000e+00
7.4000000000000004e+00 0.0000000000000000e+00 0.0000000000000000e+00
7.5000000000000000e+00 0.0000000000000000e+00 0.0000000000000000e+00
7.6000000000000005e+00 0.0000000000000000e+00 0.0000000000000000e+00
7.7000000000000002e+00 0.0000000000000000e+00 0.0000000000000000e+00
7.8000000000000007e+00 0.0000000000000000e+00 0.0000000000000000e+00
7.9000000000000004e+00 0.0000000000000000e+00 0.0000000000000000e+00
8.0000000000000000e+00 0.0000000000000000e+00 0.0000000000000000e+00
8.0999999999999996e+00 0.0000000000000000e+00 0.0000000000000000e+00
8.2000000000000011e+00 0.0000000000000000e+00 0.0000000000000000e+00
8.3000000000000007e+00 0.0000000000000000e+00 0.0000000000000000e+00
8.4000000000000004e+00 0.0000000000000000e+00 0.0000000000000000e+00
8.5000000000000000e+00 0.0000000000000000e+00 0.0000000000000000e+00
8.5999999999999996e+00 0.0000000000000000e+00 0.0000000000000000e+00
8.7000000000000011e+00 0.0000000000000000e+00 0.0000000000000000e+00
8.8000000000000007e+00 0.0000000000000000e+00 0.0000000000000000e+00
8.9000000000000004e+00 0.0000000000000000e+00 0.0000000000000000e+00
9.0000000000000000e+00 0.0000000000000000e+00 0.0000000000000000e+00
9.0999999999999996e+00 0.0000000000000000e+00 0.0000000000000000e+00
9.2000000000000011e+00 0.0000000000000000e+00 0.0000000000000000e+00
9.3000000000000007e+00 0.0000000000000000e+00 0.0000000000000000e+00
9.4000000000000004e+00 0.0000000000000000e+00 0.0000000000000000e+00
9.5000000000000000e+00 0.0000000000000000e+00 0.0000000000000000e+00
9.6000000000000014e+00 0.0000000000000000e+00 0.0000000000000000e+00
9.7000000000000011e+00 0.0000000000000000e+00 0.0000000000000000e+00
9.8000000000000007e+00 0.0000000000000000e+00 0.0000000000000000e+00
9.9000000000000004e+00 0.0000000000000000e+00 0.0000000000000000e+00
1.0000000000000000e+01 0.0000000000000000e+00 0.0000000000000000e+00

POINT_DATA 101

VECTORS velocity float
3.4684976693793717e+00 0.0000000000000000e+00 0.0000000000000000e+00
3.4687136632668478e+00 0.0000000000000000e+00 0.0000000000000000e+00
3.4689092068722140e+00 0.0000000000000000e+00 0.0000000000000000e+00
3.4690931004985317e+00 0.0000000000000000e+00 0.0000000000000000e+00
3.4692704471997633e+00 0.0000000000000000e+00 0.0000000000000000e+00
3.4694447549197713e+00 0.0000000000000000e+00 0.0000000000000000e+00
3.4696190668756595e+00 0.0000000000000000e+00 0.0000000000000000e+00
3.4697946564880220e+00 0.0000000000000000e+00 0.0000000000000000e+00
3.4699688788555911e+00 0.0000000000000000e+00 0.0000000000000000e+00
3.4701394606679017e+00 0.0000000000000000e+00 0.0000000000000000e+00
3.4703072073558001e+00 0.0000000000000000e+00 0.0000000000000000e+00
3.4704729575780284e+00 0.0000000000000000e+00 0.0000000000000000e+00
3.4706374141454024e+00 0.0000000000000000e+00 0.0000000000000000e+00
3.4708021471442381e+00 0.0000000000000000e+00 0.0000000000000000e+00
3.4709673528538096e+00 0.0000000000000000e+00 0.0000000000000000e+00
3.4711325334982899e+00 0.0000000000000000e+00 0.0000000000000000e+00
3.4712954237410485e+00 0.0000000000000000e+00 0.0000000000000000e+00
3.4714541379020201e+00 0.0000000000000000e+00 0.0000000000000000e+00
3.4716103018077042e+00 0.0000000000000000e+00 0.0000000000000000e+00
3.4717650694428959e+00 0.0000000000000000e+00 0.0000000000000000e+00
3.4719185182876533e+00 0.0000000000000000e+00 0.0000000000000000e+00
3.4720709495197157e+00 0.0000000000000000e+00 0.0000000000000000e+00
3.4722228741059391e+00 0.0000000000000000e+00 0.0000000000000000e+00
3.4723745455678516e+00 0.0000000000000000e+00 0.0000000000000000e+00
3.4725252487841556e+00 0.0000000000000000e+00 0.0000000000000000e+00
3.4726742374395307e+00 0.0000000000000000e+00 0.0000000000000000e+00
3.4728214114054179e+00 0.0000000000000000e+00 0.0000000000000000e+00
3.4729670013178957e+00 0.0000000000000000e+00 0.0000000000000000e+00
3.4731111958362857e+00 0.0000000000000000e+00 0.0000000000000000e+00
3.4732535631662675e+00 0.0000000000000000e+00 0.0000000000000000e+00
3.4733937610924741e+00 0.0000000000000000e+00 0.0000000000000000e+00
3.4735321363887501e+00 0.0000000000000000e+00 0.0000000000000000e+00
3.4736690994729584e+00 0.0000000000000000e+00 0.0000000000000000e+00
3.4738051087427890e+00 0.0000000000000000e+00 0.0000000000000000e+00
3.4739400175927080e+00 0.0000000000000000e+00 0.0000000000000000e+00
3.4740735932763820e+00 0.0000000000000000e+00 0.0000000000000000e+00
3.4742057412483986e+00 0.0000000000000000e+00 0.0000000000000000e+00
3.4743364164165005e+00 0.0000000000000000e+00 0.0000000000000000e+00
3.4744656064905577e+00 0.0000000000000000e+00 0.0000000000000000e+00
3.4745932869107601e+00 0.0000000000000000e+00 0.0000000000000000e+00
3.4747194854256871e+00 0.0000000000000000e+00 0.0000000000000000e+00
3.4748442183930095e+00 0.0000000000000000e+00 0.0000000000000000e+00
3.4749674905891972e+00 0.0000000000000000e+00 0.0000000000000000e+00
3.4750893013585489e+00 0.0000000000000000e+00 0.0000000000000000e+00
3.4752096479798076e+00 0.0000000000000000e+00 0.0000000000000000e+00
3.4753285267700194e+00 0.0000000000000000e+00 0.0000000000000000e+00
3.4754459337063239e+00 0.0000000000000000e+00 0.0000000000000000e+00
3.4755618643169330e+00 0.0000000000000000e+00 0.0000000000000000e+00
3.4756763147414387e+00 0.0000000000000000e+00 0.0000000000000000e+00
3.4757892811423243e+00 0.0000000000000000e+00 0.0000000000000000e+00
3.4759007592259583e+00 0.0000000000000000e+00 0.0000000000000000e+00
3.4760107453471654e+00 0.0000000000000000e+00 0.0000000000000000e+00
3.4761192355233779e+00 0.0000000000000000e+00 0.0000000000000000e+00
3.4762262256862586e+00 0.0000000000000000e+00 0.0000000000000000e+00
3.4763317122413424e+00 0.0000000000000000e+00 0.0000000000000000e+00
3.4764356917638857e+00 0.0000000000000000e+00 0.0000000000000000e+00
3.4765381603110637e+00 0.0000000000000000e+00 0.0000000000000000e+00
3.4766391142174444e+00 0.0000000000000000e+00 0.0000000000000000e+00
3.4767385504073336e+00 0.0000000000000000e+00 0.0000000000000000e+00
3.4768364654251793e+00 0.0000000000000000e+00 0.0000000000000000e+00
3.4769328557101562e+00 0.0000000000000000e+00 0.0000000000000000e+00
3.4770277180975890e+00 0.0000000000000000e+00 0.0000000000000000e+00
3.4771210494677862e+00 0.0000000000000000e+00 0.0000000000000000e+00
3.4772128464381891e+00 0.0000000000000000e+00 0.0000000000000000e+00
3.4773031058446957e+00 0.0000000000000000e+00 0.0000000000000000e+00
3.4773918246456512e+00 0.0000000000000000e+00 0.0000000000000000e+00
3.4774789997923392e+00 0.0000000000000000e+00 0.0000000000000000e+00
3.4775646283971922e+00 0.0000000000000000e+00 0.0000000000000000e+00
3.4776487076112761e+00 0.0000000000000000e+00 0.0000000000000000e+00
3.4777312345632621e+00 0.0000000000000000e+00 0.0000000000000000e+00
3.4778122064686516e+00 0.0000000000000000e+00 0.0000000000000000e+00
3.4778916206326809e+00 0.0000000000000000e+00 0.0000000000000000e+00
3.4779694744159726e+00 0.0000000000000000e+00 0.0000000000000000e+00
3.4780457652020220e+00 0.0000000000000000e+00 0.0000000000000000e+00
3.4781204904650185e+00 0.0000000000000000e+00 0.0000000000000000e+00
3.4781936476592872e+00 0.0000000000000000e+00 0.0000000000000000e+00
3.4782652344168028e+00 0.0000000000000000e+00 0.0000000000000000e+00
3.4783352483176135e+00 0.0000000000000000e+00 0.0000000000000000e+00
3.4784036870667432e+00 0.0000000000000000e+00 0.0000000000000000e+00
3.4784705486825427e+00 0.0000000000000000e+00 0.0000000000000000e+00
3.4785358308832746e+00 0.0000000000000000e+00 0.0000000000000000e+00
3.4785995315351905e+00 0.0000000000000000e+00 0.0000000000000000e+00
3.4786616484859092e+00 0.0000000000000000e+00 0.0000000000000000e+00
3.4787221799145764e+00 0.0000000000000000e+00 0.0000000000000000e+00
3.4787811238720812e+00 0.0000000000000000e+00 0.0000000000000000e+00
3.4788384782068857e+00 0.0000000000000000e+00 0.0000000000000000e+00
3.4788942412887849e+00 0.0000000000000000e+00 0.0000000000000000e+00
3.4789484111438500e+00 0.0000000000000000e+00 0.0000000000000000e+00
3.4790009860434088e+00 0.0000000000000000e+00 0.0000000000000000e+00
3.4790519642333266e+00 0.0000000000000000e+00 0.0000000000000000e+00
3.4791013448729813e+00 0.0000000000000000e+00 0.0000000000000000e+00
3.4791491266072994e+00 0.0000000000000000e+00 0.0000000000000000e+00
3.4791953074380855e+00 0.0000000000000000e+00 0.0000000000000000e+00
3.4792398856986324e+00 0.0000000000000000e+00 0.0000000000000000e+00
3.4792828625009449e+00 0.0000000000000000e+00 0.0000000000000000e+00
3.4793242257810677e+00 0.0000000000000000e+00 0.0000000000000000e+00
3.4793640085027775e+00 0.0000000000000000e+00 0.0000000000000000e+00
3.4794021078588471e+00 0.0000000000000000e+00 0.0000000000000000e+00
3.4794388132586564e+00 0.0000000000000000e+00 0.0000000000000000e+00
3.4794733149110386e+00 0.0000000000000000e+00 0.0000000000000000e+00
3.4795078165634203e+00 0.0000000000000000e+00 0.0000000000000000e+00


SCALARS pressure float
LOOKUP_TABLE default
9.7178730126619168e+00
9.6255309716385238e+00
9.5331889306151307e+00
9.4407636200673704e+00
9.3482232617302987e+00
9.2555505964277973e+00
9.1627343629431177e+00
9.0697647686850154e+00
8.9766388121282237e+00
8.8833675775745213e+00
8.7899605034726260e+00
8.6964163185571302e+00
8.6027336937296841e+00
8.5089116597205123e+00
8.4149461574187310e+00
8.3208380601904892e+00
8.2265907711992892e+00
8.1322141185630663e+00
8.0377164221924620e+00
7.9430934648715823e+00
7.8483425718167314e+00
7.7534649724821580e+00
7.6584613563151462e+00
7.5633319089444582e+00
7.4680777519414940e+00
7.3727024170677993e+00
7.2772093670366083e+00
7.1816008948412993e+00
7.0858779697684060e+00
6.9900416104435692e+00
6.8940950110669004e+00
6.7980410354937000e+00
6.7018801508952972e+00
6.6056125731679911e+00
6.5092383275668206e+00
6.4127595502044237e+00
6.3161786800298998e+00
6.2194976857194142e+00
6.1227183632308115e+00
6.0258424164683433e+00
5.9288715404448880e+00
5.8318071899464901e+00
5.7346509217481838e+00
5.6374043574252273e+00
5.5400691481418702e+00
5.4426469576567182e+00
5.3451394564014327e+00
5.2475483184767651e+00
5.1498752217231480e+00
5.0521218438709070e+00
4.9542898645771132e+00
4.8563809669044744e+00
4.7583968335158717e+00
4.6603391500890794e+00
4.5622096043162426e+00
4.4640098839622198e+00
4.3657416779735803e+00
4.2674066788123826e+00
4.1690065795335949e+00
4.0705430727588396e+00
3.9720178540238553e+00
3.8734326207516987e+00
3.7747890704437985e+00
3.6760889019141256e+00
3.5773338163300457e+00
3.4785255154861208e+00
3.3796657021210210e+00
3.2807560803164959e+00
3.1817983548807671e+00
3.0827942317402806e+00
2.9837454181090606e+00
2.8846536220792611e+00
2.7855205525808602e+00
2.6863479194711641e+00
2.5871374336135267e+00
2.4878908065805225e+00
2.3886097510410509e+00
2.2892959799914854e+00
2.1899512075696261e+00
2.0905771483376543e+00
1.9911755166367298e+00
1.8917480287275970e+00
1.7922964011130271e+00
1.6928223511350708e+00
1.5933275956963902e+00
1.4938138529086162e+00
1.3942828421463767e+00
1.2947362815343717e+00
1.1951758912585890e+00
1.0956033911600318e+00
9.9602050177492130e-01
8.9642894025486763e-01
7.9683042711817020e-01
6.9722668322749770e-01
5.9761943453758681e-01
4.9801038356551003e-01
3.9840131244505056e-01
2.9879376730171447e-01
1.9918995590429156e-01
9.9590273710491575e-02
0.0000000000000000e+00


SCALARS diameter float
LOOKUP_TABLE default
1.0008806376007806e+00
1.0008708036169427e+00
1.0008611953119440e+00
1.0008528366561513e+00
1.0008450747640032e+00
1.0008372925274953e+00
1.0008286986037616e+00
1.0008190665116830e+00
1.0008095293091299e+00
1.0008013426902691e+00
1.0007935434447781e+00
1.0007857280887873e+00
1.0007778383809578e+00
1.0007693058159441e+00
1.0007599628440118e+00
1.0007504608663333e+00
1.0007411204314050e+00
1.0007332818787296e+00
1.0007255163934001e+00
1.0007174787512882e+00
1.0007093596590066e+00
1.0007011882754673e+00
1.0006926044668316e+00
1.0006836197843809e+00
1.0006743595289920e+00
1.0006654321802222e+00
1.0006567432729885e+00
1.0006480131317532e+00
1.0006392802271280e+00
1.0006305780686207e+00
1.0006222713880972e+00
1.0006139522272535e+00
1.0006056100619722e+00
1.0005969801212093e+00
1.0005882283513754e+00
1.0005794723078671e+00
1.0005707112046993e+00
1.0005619448420904e+00
1.0005531731778201e+00
1.0005443967315788e+00
1.0005356127583669e+00
1.0005268201602782e+00
1.0005180198479116e+00
1.0005092125141668e+00
1.0005003984232983e+00
1.0004915777880818e+00
1.0004827508024197e+00
1.0004739177040518e+00
1.0004650786826386e+00
1.0004562335099219e+00
1.0004473826942635e+00
1.0004385261294406e+00
1.0004296639574850e+00
1.0004207965009024e+00
1.0004119237633726e+00
1.0004030457577937e+00
1.0003941627027158e+00
1.0003852748933830e+00
1.0003763821252143e+00
1.0003674845755188e+00
1.0003585824860279e+00
1.0003496759023331e+00
1.0003407648366340e+00
1.0003318495343188e+00
1.0003229301352610e+00
1.0003140066841378e+00
1.0003050793473098e+00
1.0002961481956545e+00
1.0002872133236411e+00
1.0002782748661916e+00
1.0002693329507824e+00
1.0002603876651714e+00
1.0002514391248938e+00
1.0002424874410789e+00
1.0002335327337177e+00
1.0002245751151166e+00
1.0002156147209151e+00
1.0002066516044288e+00
1.0001976859862935e+00
1.0001887177633095e+00
1.0001797471594169e+00
1.0001707742854111e+00
1.0001617992669980e+00
1.0001528221830245e+00
1.0001438430559870e+00
1.0001348621957202e+00
1.0001258796055665e+00
1.0001168953949884e+00
1.0001079098416548e+00
1.0000989228126100e+00
1.0000899345141243e+00
1.0000809444135863e+00
1.0000719536642471e+00
1.0000629615034322e+00
1.0000539686834762e+00
1.0000449751170855e+00
1.0000359809121111e+00
1.0000269861692415e+00
1.0000179910415479e+00
1.0000089957122713e+00
1.0000000000405369e+00


SCALARS iters float
LOOKUP_TABLE default
3.0000000000000000e+00
3.0000000000000000e+00
3.0000000000000000e+00
3.0000000000000000e+00
3.0000000000000000e+00
3.0000000000000000e+00
3.0000000000000000e+00
3.0000000000000000e+00
3.0000000000000000e+00
3.0000000000000000e+00
3.0000000000000000e+00
3.0000000000000000e+00
3.0000000000000000e+00
3.0000000000000000e+00
3.0000000000000000e+00
3.0000000000000000e+00
3.0000000000000000e+00
3.0000000000000000e+00
3.0000000000000000e+00
3.0000000000000000e+00
3.0000000000000000e+00
3.0000000000000000e+00
3.0000000000000000e+00
3.0000000000000000e+00
3.0000000000000000e+00
3.0000000000000000e+00
3.0000000000000000e+00
3.0000000000000000e+00
3.0000000000000000e+00
3.0000000000000000e+00
3.0000000000000000e+00
3.0000000000000000e+00
3.0000000000000000e+00
3.0000000000000000e+00
3.0000000000000000e+00
3.0000000000000000e+00
3.0000000000000000e+00
3.0000000000000000e+00
3.0000000000000000e+00
3.0000000000000000e+00
3.0000000000000000e+00
3.0000000000000000e+00
3.0000000000000000e+00
3.0000000000000000e+00
3.0000000000000000e+00
3.0000000000000000e+00
3.0000000000000000e+00
3.0000000000000000e+00
3.0000000000000000e+00
3.0000000000000000e+00
3.0000000000000000e+00
3.0000000000000000e+00
3.0000000000000000e+00
3.0000000000000000e+00
3.0000000000000000e+00
3.0000000000000000e+00
3.0000000000000000e+00
3.0000000000000000e+00
3.0000000000000000e+00
3.0000000000000000e+00
3.0000000000000000e+00
3.0000000000000000e+00
3.0000000000000000e+00
3.0000000000000000e+00
3.0000000000000000e+00
3.0000000000000000e+00
3.0000000000000000e+00
3.0000000000000000e+00
3.0000000000000000e+00
3.0000000000000000e+00
3.0000000000000000e+00
3.0000000000000000e+00
3.0000000000000000e+00
3.0000000000000000e+00
3.0000000000000000e+00
3.0000000000000000e+00
3.0000000000000000e+00
3.0000000000000000e+00
3.0000000000000000e+00
3.0000000000000000e+00
3.0000000000000000e+00
3.0000000000000000e+00
3.0000000000000000e+00
3.0000000000000000e+00
3.0000000000000000e+00
3.0000000000000000e+00
3.0000000000000000e+00
3.0000000000000000e+00
3.0000000000000000e+00
3.0000000000000000e+00
3.0000000000000000e+00
3.0000000000000000e+00
3.0000000000000000e+00
3.0000000000000000e+00
3.0000000000000000e+00
3.0000000000000000e+00
3.0000000000000000e+00
3.0000000000000000e+00
3.0000000000000000e+00
3.0000000000000000e+00
3.0000000000000000e+00


