# vtk DataFile Version 2.0

ASCII

DATASET UNSTRUCTURED_GRID

POINTS 101 float

0.0000000000000000e+00 0.0000000000000000e+00 0.0000000000000000e+00
1.0000000000000001e-01 0.0000000000000000e+00 0.0000000000000000e+00
2.0000000000000001e-01 0.0000000000000000e+00 0.0000000000000000e+00
3.0000000000000004e-01 0.0000000000000000e+00 0.0000000000000000e+00
4.0000000000000002e-01 0.0000000000000000e+00 0.0000000000000000e+00
5.0000000000000000e-01 0.0000000000000000e+00 0.0000000000000000e+00
6.0000000000000009e-01 0.0000000000000000e+00 0.0000000000000000e+00
7.0000000000000007e-01 0.0000000000000000e+00 0.0000000000000000e+00
8.0000000000000004e-01 0.0000000000000000e+00 0.0000000000000000e+00
9.0000000000000002e-01 0.0000000000000000e+00 0.0000000000000000e+00
1.0000000000000000e+00 0.0000000000000000e+00 0.0000000000000000e+00
1.1000000000000001e+00 0.0000000000000000e+00 0.0000000000000000e+00
1.2000000000000002e+00 0.0000000000000000e+00 0.0000000000000000e+00
1.3000000000000000e+00 0.0000000000000000e+00 0.0000000000000000e+00
1.4000000000000001e+00 0.0000000000000000e+00 0.0000000000000000e+00
1.5000000000000000e+00 0.0000000000000000e+00 0.0000000000000000e+00
1.6000000000000001e+00 0.0000000000000000e+00 0.0000000000000000e+00
1.7000000000000002e+00 0.0000000000000000e+00 0.0000000000000000e+00
1.8000000000000000e+00 0.0000000000000000e+00 0.0000000000000000e+00
1.9000000000000001e+00 0.0000000000000000e+00 0.0000000000000000e+00
2.0000000000000000e+00 0.0000000000000000e+00 0.0000000000000000e+00
2.1000000000000001e+00 0.0000000000000000e+00 0.0000000000000000e+00
2.2000000000000002e+00 0.0000000000000000e+00 0.0000000000000000e+00
2.3000000000000003e+00 0.0000000000000000e+00 0.0000000000000000e+00
2.4000000000000004e+00 0.0000000000000000e+00 0.0000000000000000e+00
2.5000000000000000e+00 0.0000000000000000e+00 0.0000000000000000e+00
2.6000000000000001e+00 0.0000000000000000e+00 0.0000000000000000e+00
2.7000000000000002e+00 0.0000000000000000e+00 0.0000000000000000e+00
2.8000000000000003e+00 0.0000000000000000e+00 0.0000000000000000e+00
2.9000000000000004e+00 0.0000000000000000e+00 0.0000000000000000e+00
3.0000000000000000e+00 0.0000000000000000e+00 0.0000000000000000e+00
3.1000000000000001e+00 0.0000000000000000e+00 0.0000000000000000e+00
3.2000000000000002e+00 0.0000000000000000e+00 0.0000000000000000e+00
3.3000000000000003e+00 0.0000000000000000e+00 0.0000000000000000e+00
3.4000000000000004e+00 0.0000000000000000e+00 0.0000000000000000e+00
3.5000000000000000e+00 0.0000000000000000e+00 0.0000000000000000e+00
3.6000000000000001e+00 0.0000000000000000e+00 0.0000000000000000e+00
3.7000000000000002e+00 0.0000000000000000e+00 0.0000000000000000e+00
3.8000000000000003e+00 0.0000000000000000e+00 0.0000000000000000e+00
3.9000000000000004e+00 0.0000000000000000e+00 0.0000000000000000e+00
4.0000000000000000e+00 0.0000000000000000e+00 0.0000000000000000e+00
4.1000000000000005e+00 0.0000000000000000e+00 0.0000000000000000e+00
4.2000000000000002e+00 0.0000000000000000e+00 0.0000000000000000e+00
4.2999999999999998e+00 0.0000000000000000e+00 0.0000000000000000e+00
4.4000000000000004e+00 0.0000000000000000e+00 0.0000000000000000e+00
4.5000000000000000e+00 0.0000000000000000e+00 0.0000000000000000e+00
4.6000000000000005e+00 0.0000000000000000e+00 0.0000000000000000e+00
4.7000000000000002e+00 0.0000000000000000e+00 0.0000000000000000e+00
4.8000000000000007e+00 0.0000000000000000e+00 0.0000000000000000e+00
4.9000000000000004e+00 0.0000000000000000e+00 0.0000000000000000e+00
5.0000000000000000e+00 0.0000000000000000e+00 0.0000000000000000e+00
5.1000000000000005e+00 0.0000000000000000e+00 0.0000000000000000e+00
5.2000000000000002e+00 0.0000000000000000e+00 0.0000000000000000e+00
5.3000000000000007e+00 0.0000000000000000e+00 0.0000000000000000e+00
5.4000000000000004e+00 0.0000000000000000e+00 0.0000000000000000e+00
5.5000000000000000e+00 0.0000000000000000e+00 0.0000000000000000e+00
5.6000000000000005e+00 0.0000000000000000e+00 0.0000000000000000e+00
5.7000000000000002e+00 0.0000000000000000e+00 0.0000000000000000e+00
5.8000000000000007e+00 0.0000000000000000e+00 0.0000000000000000e+00
5.9000000000000004e+00 0.0000000000000000e+00 0.0000000000000000e+00
6.0000000000000000e+00 0.0000000000000000e+00 0.0000000000000000e+00
6.1000000000000005e+00 0.0000000000000000e+00 0.0000000000000000e+00
6.2000000000000002e+00 0.0000000000000000e+00 0.0000000000000000e+00
6.3000000000000007e+00 0.0000000000000000e+00 0.0000000000000000e+00
6.4000000000000004e+00 0.0000000000000000e+00 0.0000000000000000e+00
6.5000000000000000e+00 0.0000000000000000e+00 0.0000000000000000e+00
6.6000000000000005e+00 0.0000000000000000e+00 0.0000000000000000e+00
6.7000000000000002e+00 0.0000000000000000e+00 0.0000000000000000e+00
6.8000000000000007e+00 0.0000000000000000e+00 0.0000000000000000e+00
6.9000000000000004e+00 0.0000000000000000e+00 0.0000000000000000e+00
7.0000000000000000e+00 0.0000000000000000e+00 0.0000000000000000e+00
7.1000000000000005e+00 0.0000000000000000e+00 0.0000000000000000e+00
7.2000000000000002e+00 0.0000000000000000e+00 0.0000000000000000e+00
7.3000000000000007e+00 0.0000000000000000e+00 0.0000000000000000e+00
7.4000000000000004e+00 0.0000000000000000e+00 0.0000000000000000e+00
7.5000000000000000e+00 0.0000000000000000e+00 0.0000000000000000e+00
7.6000000000000005e+00 0.0000000000000000e+00 0.0000000000000000e+00
7.7000000000000002e+00 0.0000000000000000e+00 0.0000000000000000e+00
7.8000000000000007e+00 0.0000000000000000e+00 0.0000000000000000e+00
7.9000000000000004e+00 0.0000000000000000e+00 0.0000000000000000e+00
8.0000000000000000e+00 0.0000000000000000e+00 0.0000000000000000e+00
8.0999999999999996e+00 0.0000000000000000e+00 0.0000000000000000e+00
8.2000000000000011e+00 0.0000000000000000e+00 0.0000000000000000e+00
8.3000000000000007e+00 0.0000000000000000e+00 0.0000000000000000e+00
8.4000000000000004e+00 0.0000000000000000e+00 0.0000000000000000e+00
8.5000000000000000e+00 0.0000000000000000e+00 0.0000000000000000e+00
8.5999999999999996e+00 0.0000000000000000e+00 0.0000000000000000e+00
8.7000000000000011e+00 0.0000000000000000e+00 0.0000000000000000e+00
8.8000000000000007e+00 0.0000000000000000e+00 0.0000000000000000e+00
8.9000000000000004e+00 0.0000000000000000e+00 0.0000000000000000e+00
9.0000000000000000e+00 0.0000000000000000e+00 0.0000000000000000e+00
9.0999999999999996e+00 0.0000000000000000e+00 0.0000000000000000e+00
9.2000000000000011e+00 0.0000000000000000e+00 0.0000000000000000e+00
9.3000000000000007e+00 0.0000000000000000e+00 0.0000000000000000e+00
9.4000000000000004e+00 0.0000000000000000e+00 0.0000000000000000e+00
9.5000000000000000e+00 0.0000000000000000e+00 0.0000000000000000e+00
9.6000000000000014e+00 0.0000000000000000e+00 0.0000000000000000e+00
9.7000000000000011e+00 0.0000000000000000e+00 0.0000000000000000e+00
9.8000000000000007e+00 0.0000000000000000e+00 0.0000000000000000e+00
9.9000000000000004e+00 0.0000000000000000e+00 0.0000000000000000e+00
1.0000000000000000e+01 0.0000000000000000e+00 0.0000000000000000e+00

POINT_DATA 101

VECTORS velocity float
4.9198761721555133e+00 0.0000000000000000e+00 0.0000000000000000e+00
4.9205919954723791e+00 0.0000000000000000e+00 0.0000000000000000e+00
4.9213368949377045e+00 0.0000000000000000e+00 0.0000000000000000e+00
4.9220934696384555e+00 0.0000000000000000e+00 0.0000000000000000e+00
4.9228514148276288e+00 0.0000000000000000e+00 0.0000000000000000e+00
4.9236077615895555e+00 0.0000000000000000e+00 0.0000000000000000e+00
4.9243655211954618e+00 0.0000000000000000e+00 0.0000000000000000e+00
4.9251175999214576e+00 0.0000000000000000e+00 0.0000000000000000e+00
4.9258563700018954e+00 0.0000000000000000e+00 0.0000000000000000e+00
4.9265837122515181e+00 0.0000000000000000e+00 0.0000000000000000e+00
4.9273007705805236e+00 0.0000000000000000e+00 0.0000000000000000e+00
4.9280078972367871e+00 0.0000000000000000e+00 0.0000000000000000e+00
4.9287080200270985e+00 0.0000000000000000e+00 0.0000000000000000e+00
4.9294051767002687e+00 0.0000000000000000e+00 0.0000000000000000e+00
4.9300977357168980e+00 0.0000000000000000e+00 0.0000000000000000e+00
4.9307839622754095e+00 0.0000000000000000e+00 0.0000000000000000e+00
4.9314586055871690e+00 0.0000000000000000e+00 0.0000000000000000e+00
4.9321183730875156e+00 0.0000000000000000e+00 0.0000000000000000e+00
4.9327699599361257e+00 0.0000000000000000e+00 0.0000000000000000e+00
4.9334167543754868e+00 0.0000000000000000e+00 0.0000000000000000e+00
4.9340567800232638e+00 0.0000000000000000e+00 0.0000000000000000e+00
4.9346886045699607e+00 0.0000000000000000e+00 0.0000000000000000e+00
4.9353105472160719e+00 0.0000000000000000e+00 0.0000000000000000e+00
4.9359209564596078e+00 0.0000000000000000e+00 0.0000000000000000e+00
4.9365261301721235e+00 0.0000000000000000e+00 0.0000000000000000e+00
4.9371263299955617e+00 0.0000000000000000e+00 0.0000000000000000e+00
4.9377161702706021e+00 0.0000000000000000e+00 0.0000000000000000e+00
4.9382968805158001e+00 0.0000000000000000e+00 0.0000000000000000e+00
4.9388688477204710e+00 0.0000000000000000e+00 0.0000000000000000e+00
4.9394316962041840e+00 0.0000000000000000e+00 0.0000000000000000e+00
4.9399852825578829e+00 0.0000000000000000e+00 0.0000000000000000e+00
4.9405300538389314e+00 0.0000000000000000e+00 0.0000000000000000e+00
4.9410665305277748e+00 0.0000000000000000e+00 0.0000000000000000e+00
4.9415947673116580e+00 0.0000000000000000e+00 0.0000000000000000e+00
4.9421144814695062e+00 0.0000000000000000e+00 0.0000000000000000e+00
4.9426256284635093e+00 0.0000000000000000e+00 0.0000000000000000e+00
4.9431281322685043e+00 0.0000000000000000e+00 0.0000000000000000e+00
4.9436220190512481e+00 0.0000000000000000e+00 0.0000000000000000e+00
4.9441071107775585e+00 0.0000000000000000e+00 0.0000000000000000e+00
4.9445838602017398e+00 0.0000000000000000e+00 0.0000000000000000e+00
4.9450525681608184e+00 0.0000000000000000e+00 0.0000000000000000e+00
4.9455127883519259e+00 0.0000000000000000e+00 0.0000000000000000e+00
4.9459643715002199e+00 0.0000000000000000e+00 0.0000000000000000e+00
4.9464072351093265e+00 0.0000000000000000e+00 0.0000000000000000e+00
4.9468413303216030e+00 0.0000000000000000e+00 0.0000000000000000e+00
4.9472666240631487e+00 0.0000000000000000e+00 0.0000000000000000e+00
4.9476830943671199e+00 0.0000000000000000e+00 0.0000000000000000e+00
4.9480907284676610e+00 0.0000000000000000e+00 0.0000000000000000e+00
4.9484895157335931e+00 0.0000000000000000e+00 0.0000000000000000e+00
4.9488794459224428e+00 0.0000000000000000e+00 0.0000000000000000e+00
4.9492605093043558e+00 0.0000000000000000e+00 0.0000000000000000e+00
4.9496326975011220e+00 0.0000000000000000e+00 0.0000000000000000e+00
4.9499960024123677e+00 0.0000000000000000e+00 0.0000000000000000e+00
4.9503504170008528e+00 0.0000000000000000e+00 0.0000000000000000e+00
4.9506959343662427e+00 0.0000000000000000e+00 0.0000000000000000e+00
4.9510325471976859e+00 0.0000000000000000e+00 0.0000000000000000e+00
4.9513602479146535e+00 0.0000000000000000e+00 0.0000000000000000e+00
4.9516790296820199e+00 0.0000000000000000e+00 0.0000000000000000e+00
4.9519888867673005e+00 0.0000000000000000e+00 0.0000000000000000e+00
4.9522898126844233e+00 0.0000000000000000e+00 0.0000000000000000e+00
4.9525818012865654e+00 0.0000000000000000e+00 0.0000000000000000e+00
4.9528648476208392e+00 0.0000000000000000e+00 0.0000000000000000e+00
4.9531389464716451e+00 0.0000000000000000e+00 0.0000000000000000e+00
4.9534040916623283e+00 0.0000000000000000e+00 0.0000000000000000e+00
4.9536602776924923e+00 0.0000000000000000e+00 0.0000000000000000e+00
4.9539074994028898e+00 0.0000000000000000e+00 0.0000000000000000e+00
4.9541457517867302e+00 0.0000000000000000e+00 0.0000000000000000e+00
4.9543750301165019e+00 0.0000000000000000e+00 0.0000000000000000e+00
4.9545953298824505e+00 0.0000000000000000e+00 0.0000000000000000e+00
4.9548066467869001e+00 0.0000000000000000e+00 0.0000000000000000e+00
4.9550089767384211e+00 0.0000000000000000e+00 0.0000000000000000e+00
4.9552023160684504e+00 0.0000000000000000e+00 0.0000000000000000e+00
4.9553866613451980e+00 0.0000000000000000e+00 0.0000000000000000e+00
4.9555620090506345e+00 0.0000000000000000e+00 0.0000000000000000e+00
4.9557283562507530e+00 0.0000000000000000e+00 0.0000000000000000e+00
4.9558856992558287e+00 0.0000000000000000e+00 0.0000000000000000e+00
4.9560340352973222e+00 0.0000000000000000e+00 0.0000000000000000e+00
4.9561733611503174e+00 0.0000000000000000e+00 0.0000000000000000e+00
4.9563036751000205e+00 0.0000000000000000e+00 0.0000000000000000e+00
4.9564249767905926e+00 0.0000000000000000e+00 0.0000000000000000e+00
4.9565372624101460e+00 0.0000000000000000e+00 0.0000000000000000e+00
4.9566405299806817e+00 0.0000000000000000e+00 0.0000000000000000e+00
4.9567347778047761e+00 0.0000000000000000e+00 0.0000000000000000e+00
4.9568200054613172e+00 0.0000000000000000e+00 0.0000000000000000e+00
4.9568962105489058e+00 0.0000000000000000e+00 0.0000000000000000e+00
4.9569633917630194e+00 0.0000000000000000e+00 0.0000000000000000e+00
4.9570215468357004e+00 0.0000000000000000e+00 0.0000000000000000e+00
4.9570706738298256e+00 0.0000000000000000e+00 0.0000000000000000e+00
4.9571107768244085e+00 0.0000000000000000e+00 0.0000000000000000e+00
4.9571418533820824e+00 0.0000000000000000e+00 0.0000000000000000e+00
4.9571639064864561e+00 0.0000000000000000e+00 0.0000000000000000e+00
4.9571769310189362e+00 0.0000000000000000e+00 0.0000000000000000e+00
4.9571809346409275e+00 0.0000000000000000e+00 0.0000000000000000e+00
4.9571758989495187e+00 0.0000000000000000e+00 0.0000000000000000e+00
4.9571618749466042e+00 0.0000000000000000e+00 0.0000000000000000e+00
4.9571387366426034e+00 0.0000000000000000e+00 0.0000000000000000e+00
4.9571068053297784e+00 0.0000000000000000e+00 0.0000000000000000e+00
4.9570652754627114e+00 0.0000000000000000e+00 0.0000000000000000e+00
4.9570161732081406e+00 0.0000000000000000e+00 0.0000000000000000e+00
4.9569544425002379e+00 0.0000000000000000e+00 0.0000000000000000e+00
4.9568927117923360e+00 0.0000000000000000e+00 0.0000000000000000e+00


SCALARS pressure float
LOOKUP_TABLE default
-1.8368400328169248e+01
-1.8194742464008378e+01
-1.8021084599847505e+01
-1.7847320986950407e+01
-1.7673378595212604e+01
-1.7499212566958196e+01
-1.7324809145477925e+01
-1.7150183606637047e+01
-1.6975310859858421e+01
-1.6800154295215005e+01
-1.6624717121194998e+01
-1.6449006436359138e+01
-1.6273026469878989e+01
-1.6096792548589583e+01
-1.5920327108175890e+01
-1.5743629361329486e+01
-1.5566694284990747e+01
-1.5389499954220430e+01
-1.5212027405537993e+01
-1.5034302639183741e+01
-1.4856347871613853e+01
-1.4678161851429577e+01
-1.4499741091551941e+01
-1.4321079675899293e+01
-1.4142169599666005e+01
-1.3963035719692874e+01
-1.3783685360912330e+01
-1.3604099505749540e+01
-1.3424281675065011e+01
-1.3244235654987092e+01
-1.3063962418620987e+01
-1.2883463607047323e+01
-1.2702743332083632e+01
-1.2521806405232617e+01
-1.2340655354301125e+01
-1.2159290832873593e+01
-1.1977714306064389e+01
-1.1795927292792838e+01
-1.1613931753652034e+01
-1.1431728922340289e+01
-1.1249322402587220e+01
-1.1066715537856446e+01
-1.0883908605680949e+01
-1.0700902599620896e+01
-1.0517698918595359e+01
-1.0334299173598989e+01
-1.0150705076866211e+01
-9.9669184036259573e+00
-9.7829409809292098e+00
-9.5987746552101267e+00
-9.4144212784410257e+00
-9.2298827057622734e+00
-9.0451607990252736e+00
-8.8602574230382469e+00
-8.6751744486460680e+00
-8.4899137492459520e+00
-8.3044771977693799e+00
-8.1188666666704936e+00
-7.9330840318445333e+00
-7.7471311753928811e+00
-7.5610099781635070e+00
-7.3747223230439785e+00
-7.1882700996617777e+00
-7.0016551990749205e+00
-6.8148795092242178e+00
-6.6279449211040031e+00
-6.4408533285674769e+00
-6.2536066275372280e+00
-6.0662067163716431e+00
-5.8786554957234776e+00
-5.6909548685697438e+00
-5.5031067402721927e+00
-5.3151130196754801e+00
-5.1269756186742548e+00
-4.9386964504845414e+00
-4.7502774323812451e+00
-4.5617204801018385e+00
-4.3730275139423282e+00
-4.1842004542069580e+00
-3.9952412290018260e+00
-3.8061517761674262e+00
-3.6169340212663625e+00
-3.4275898965084828e+00
-3.2381213378168519e+00
-3.0485302887196140e+00
-2.8588186869212975e+00
-2.6689884752560951e+00
-2.4790415934984957e+00
-2.2889799837789582e+00
-2.0988056183771451e+00
-1.9085204475503290e+00
-1.7181264413744894e+00
-1.5276255409122874e+00
-1.3370197370456369e+00
-1.1463109241346645e+00
-9.5550126471409191e-01
-7.6459225059837388e-01
-5.7358706982733076e-01
-3.8248465987543945e-01
-1.9129460181892410e-01
0.0000000000000000e+00


SCALARS diameter float
LOOKUP_TABLE default
9.9833172744442022e-01
9.9835417382770275e-01
9.9837213115927814e-01
9.9838894616281226e-01
9.9840529013565626e-01
9.9842175525474297e-01
9.9843591325755887e-01
9.9844954607823466e-01
9.9846608027886108e-01
9.9848313655456211e-01
9.9850044602109067e-01
9.9851786761541605e-01
9.9853503142508815e-01
9.9855035035461670e-01
9.9856481205927805e-01
9.9857936156416860e-01
9.9859469037731097e-01
9.9861267753699090e-01
9.9862992713697718e-01
9.9864542113594545e-01
9.9866070019141318e-01
9.9867637226962525e-01
9.9869259388430875e-01
9.9870990882330302e-01
9.9872658662006031e-01
9.9874088976612585e-01
9.9875687357327592e-01
9.9877293737400419e-01
9.9878903168336586e-01
9.9880518373759597e-01
9.9882163648335187e-01
9.9883813019705503e-01
9.9885457647529496e-01
9.9887094190628956e-01
9.9888736361544617e-01
9.9890381354682478e-01
9.9892029346546607e-01
9.9893680428135045e-01
9.9895334572821115e-01
9.9896990005125252e-01
9.9898618968002673e-01
9.9900250565474691e-01
9.9901884958573539e-01
9.9903522055823579e-01
9.9905161820559552e-01
9.9906804290744855e-01
9.9908449501894991e-01
9.9910097274421072e-01
9.9911747557386765e-01
9.9913400320208789e-01
9.9915055570417544e-01
9.9916713244025845e-01
9.9918373308369601e-01
9.9920035700295562e-01
9.9921700361097143e-01
9.9923367266082874e-01
9.9925036388322841e-01
9.9926707704583539e-01
9.9928381123926768e-01
9.9930056618699847e-01
9.9931734154437868e-01
9.9933413660775938e-01
9.9935095073313918e-01
9.9936778393646608e-01
9.9938463582565018e-01
9.9940150592338994e-01
9.9941839382742881e-01
9.9943529910516093e-01
9.9945222129504618e-01
9.9946915996936914e-01
9.9948611465906989e-01
9.9950308490875595e-01
9.9952007014920818e-01
9.9953707006028303e-01
9.9955408411622437e-01
9.9957111195359538e-01
9.9958815342019225e-01
9.9960520763681571e-01
9.9962227474937015e-01
9.9963935276599869e-01
9.9965644269348175e-01
9.9967354382679496e-01
9.9969065570703952e-01
9.9970777766873875e-01
9.9972490920685397e-01
9.9974205077773959e-01
9.9975920107143457e-01
9.9977636142660742e-01
9.9979352842208846e-01
9.9981070331379418e-01
9.9982788498267228e-01
9.9984507315142901e-01
9.9986226840760994e-01
9.9987946896619662e-01
9.9989667513014446e-01
9.9991388582157870e-01
9.9993110123561324e-01
9.9994832076177154e-01
9.9996554359592216e-01
9.9998276830846378e-01
9.9999999541603546e-01


SCALARS iters float
LOOKUP_TABLE default
3.0000000000000000e+00
3.0000000000000000e+00
3.0000000000000000e+00
3.0000000000000000e+00
3.0000000000000000e+00
3.0000000000000000e+00
3.0000000000000000e+00
3.0000000000000000e+00
3.0000000000000000e+00
3.0000000000000000e+00
3.0000000000000000e+00
3.0000000000000000e+00
3.0000000000000000e+00
3.0000000000000000e+00
3.0000000000000000e+00
3.0000000000000000e+00
3.0000000000000000e+00
3.0000000000000000e+00
3.0000000000000000e+00
3.0000000000000000e+00
3.0000000000000000e+00
3.0000000000000000e+00
3.0000000000000000e+00
3.0000000000000000e+00
3.0000000000000000e+00
3.0000000000000000e+00
3.0000000000000000e+00
3.0000000000000000e+00
3.0000000000000000e+00
3.0000000000000000e+00
3.0000000000000000e+00
3.0000000000000000e+00
3.0000000000000000e+00
3.0000000000000000e+00
3.0000000000000000e+00
3.0000000000000000e+00
3.0000000000000000e+00
3.0000000000000000e+00
3.0000000000000000e+00
3.0000000000000000e+00
3.0000000000000000e+00
3.0000000000000000e+00
3.0000000000000000e+00
3.0000000000000000e+00
3.0000000000000000e+00
3.0000000000000000e+00
3.0000000000000000e+00
3.0000000000000000e+00
3.0000000000000000e+00
3.0000000000000000e+00
3.0000000000000000e+00
3.0000000000000000e+00
3.0000000000000000e+00
3.0000000000000000e+00
3.0000000000000000e+00
3.0000000000000000e+00
3.0000000000000000e+00
3.0000000000000000e+00
3.0000000000000000e+00
3.0000000000000000e+00
3.0000000000000000e+00
3.0000000000000000e+00
3.0000000000000000e+00
3.0000000000000000e+00
3.0000000000000000e+00
3.0000000000000000e+00
3.0000000000000000e+00
3.0000000000000000e+00
3.0000000000000000e+00
3.0000000000000000e+00
3.0000000000000000e+00
3.0000000000000000e+00
3.0000000000000000e+00
3.0000000000000000e+00
3.0000000000000000e+00
3.0000000000000000e+00
3.0000000000000000e+00
3.0000000000000000e+00
3.0000000000000000e+00
3.0000000000000000e+00
3.0000000000000000e+00
3.0000000000000000e+00
3.0000000000000000e+00
3.0000000000000000e+00
3.0000000000000000e+00
3.0000000000000000e+00
3.0000000000000000e+00
3.0000000000000000e+00
3.0000000000000000e+00
3.0000000000000000e+00
3.0000000000000000e+00
3.0000000000000000e+00
3.0000000000000000e+00
3.0000000000000000e+00
3.0000000000000000e+00
3.0000000000000000e+00
3.0000000000000000e+00
3.0000000000000000e+00
3.0000000000000000e+00
3.0000000000000000e+00
3.0000000000000000e+00


