# vtk DataFile Version 2.0

ASCII

DATASET UNSTRUCTURED_GRID

POINTS 101 float

0.0000000000000000e+00 0.0000000000000000e+00 0.0000000000000000e+00
1.0000000000000001e-01 0.0000000000000000e+00 0.0000000000000000e+00
2.0000000000000001e-01 0.0000000000000000e+00 0.0000000000000000e+00
3.0000000000000004e-01 0.0000000000000000e+00 0.0000000000000000e+00
4.0000000000000002e-01 0.0000000000000000e+00 0.0000000000000000e+00
5.0000000000000000e-01 0.0000000000000000e+00 0.0000000000000000e+00
6.0000000000000009e-01 0.0000000000000000e+00 0.0000000000000000e+00
7.0000000000000007e-01 0.0000000000000000e+00 0.0000000000000000e+00
8.0000000000000004e-01 0.0000000000000000e+00 0.0000000000000000e+00
9.0000000000000002e-01 0.0000000000000000e+00 0.0000000000000000e+00
1.0000000000000000e+00 0.0000000000000000e+00 0.0000000000000000e+00
1.1000000000000001e+00 0.0000000000000000e+00 0.0000000000000000e+00
1.2000000000000002e+00 0.0000000000000000e+00 0.0000000000000000e+00
1.3000000000000000e+00 0.0000000000000000e+00 0.0000000000000000e+00
1.4000000000000001e+00 0.0000000000000000e+00 0.0000000000000000e+00
1.5000000000000000e+00 0.0000000000000000e+00 0.0000000000000000e+00
1.6000000000000001e+00 0.0000000000000000e+00 0.0000000000000000e+00
1.7000000000000002e+00 0.0000000000000000e+00 0.0000000000000000e+00
1.8000000000000000e+00 0.0000000000000000e+00 0.0000000000000000e+00
1.9000000000000001e+00 0.0000000000000000e+00 0.0000000000000000e+00
2.0000000000000000e+00 0.0000000000000000e+00 0.0000000000000000e+00
2.1000000000000001e+00 0.0000000000000000e+00 0.0000000000000000e+00
2.2000000000000002e+00 0.0000000000000000e+00 0.0000000000000000e+00
2.3000000000000003e+00 0.0000000000000000e+00 0.0000000000000000e+00
2.4000000000000004e+00 0.0000000000000000e+00 0.0000000000000000e+00
2.5000000000000000e+00 0.0000000000000000e+00 0.0000000000000000e+00
2.6000000000000001e+00 0.0000000000000000e+00 0.0000000000000000e+00
2.7000000000000002e+00 0.0000000000000000e+00 0.0000000000000000e+00
2.8000000000000003e+00 0.0000000000000000e+00 0.0000000000000000e+00
2.9000000000000004e+00 0.0000000000000000e+00 0.0000000000000000e+00
3.0000000000000000e+00 0.0000000000000000e+00 0.0000000000000000e+00
3.1000000000000001e+00 0.0000000000000000e+00 0.0000000000000000e+00
3.2000000000000002e+00 0.0000000000000000e+00 0.0000000000000000e+00
3.3000000000000003e+00 0.0000000000000000e+00 0.0000000000000000e+00
3.4000000000000004e+00 0.0000000000000000e+00 0.0000000000000000e+00
3.5000000000000000e+00 0.0000000000000000e+00 0.0000000000000000e+00
3.6000000000000001e+00 0.0000000000000000e+00 0.0000000000000000e+00
3.7000000000000002e+00 0.0000000000000000e+00 0.0000000000000000e+00
3.8000000000000003e+00 0.0000000000000000e+00 0.0000000000000000e+00
3.9000000000000004e+00 0.0000000000000000e+00 0.0000000000000000e+00
4.0000000000000000e+00 0.0000000000000000e+00 0.0000000000000000e+00
4.1000000000000005e+00 0.0000000000000000e+00 0.0000000000000000e+00
4.2000000000000002e+00 0.0000000000000000e+00 0.0000000000000000e+00
4.2999999999999998e+00 0.0000000000000000e+00 0.0000000000000000e+00
4.4000000000000004e+00 0.0000000000000000e+00 0.0000000000000000e+00
4.5000000000000000e+00 0.0000000000000000e+00 0.0000000000000000e+00
4.6000000000000005e+00 0.0000000000000000e+00 0.0000000000000000e+00
4.7000000000000002e+00 0.0000000000000000e+00 0.0000000000000000e+00
4.8000000000000007e+00 0.0000000000000000e+00 0.0000000000000000e+00
4.9000000000000004e+00 0.0000000000000000e+00 0.0000000000000000e+00
5.0000000000000000e+00 0.0000000000000000e+00 0.0000000000000000e+00
5.1000000000000005e+00 0.0000000000000000e+00 0.0000000000000000e+00
5.2000000000000002e+00 0.0000000000000000e+00 0.0000000000000000e+00
5.3000000000000007e+00 0.0000000000000000e+00 0.0000000000000000e+00
5.4000000000000004e+00 0.0000000000000000e+00 0.0000000000000000e+00
5.5000000000000000e+00 0.0000000000000000e+00 0.0000000000000000e+00
5.6000000000000005e+00 0.0000000000000000e+00 0.0000000000000000e+00
5.7000000000000002e+00 0.0000000000000000e+00 0.0000000000000000e+00
5.8000000000000007e+00 0.0000000000000000e+00 0.0000000000000000e+00
5.9000000000000004e+00 0.0000000000000000e+00 0.0000000000000000e+00
6.0000000000000000e+00 0.0000000000000000e+00 0.0000000000000000e+00
6.1000000000000005e+00 0.0000000000000000e+00 0.0000000000000000e+00
6.2000000000000002e+00 0.0000000000000000e+00 0.0000000000000000e+00
6.3000000000000007e+00 0.0000000000000000e+00 0.0000000000000000e+00
6.4000000000000004e+00 0.0000000000000000e+00 0.0000000000000000e+00
6.5000000000000000e+00 0.0000000000000000e+00 0.0000000000000000e+00
6.6000000000000005e+00 0.0000000000000000e+00 0.0000000000000000e+00
6.7000000000000002e+00 0.0000000000000000e+00 0.0000000000000000e+00
6.8000000000000007e+00 0.0000000000000000e+00 0.0000000000000000e+00
6.9000000000000004e+00 0.0000000000000000e+00 0.0000000000000000e+00
7.0000000000000000e+00 0.0000000000000000e+00 0.0000000000000000e+00
7.1000000000000005e+00 0.0000000000000000e+00 0.0000000000000000e+00
7.2000000000000002e+00 0.0000000000000000e+00 0.0000000000000000e+00
7.3000000000000007e+00 0.0000000000000000e+00 0.0000000000000000e+00
7.4000000000000004e+00 0.0000000000000000e+00 0.0000000000000000e+00
7.5000000000000000e+00 0.0000000000000000e+00 0.0000000000000000e+00
7.6000000000000005e+00 0.0000000000000000e+00 0.0000000000000000e+00
7.7000000000000002e+00 0.0000000000000000e+00 0.0000000000000000e+00
7.8000000000000007e+00 0.0000000000000000e+00 0.0000000000000000e+00
7.9000000000000004e+00 0.0000000000000000e+00 0.0000000000000000e+00
8.0000000000000000e+00 0.0000000000000000e+00 0.0000000000000000e+00
8.0999999999999996e+00 0.0000000000000000e+00 0.0000000000000000e+00
8.2000000000000011e+00 0.0000000000000000e+00 0.0000000000000000e+00
8.3000000000000007e+00 0.0000000000000000e+00 0.0000000000000000e+00
8.4000000000000004e+00 0.0000000000000000e+00 0.0000000000000000e+00
8.5000000000000000e+00 0.0000000000000000e+00 0.0000000000000000e+00
8.5999999999999996e+00 0.0000000000000000e+00 0.0000000000000000e+00
8.7000000000000011e+00 0.0000000000000000e+00 0.0000000000000000e+00
8.8000000000000007e+00 0.0000000000000000e+00 0.0000000000000000e+00
8.9000000000000004e+00 0.0000000000000000e+00 0.0000000000000000e+00
9.0000000000000000e+00 0.0000000000000000e+00 0.0000000000000000e+00
9.0999999999999996e+00 0.0000000000000000e+00 0.0000000000000000e+00
9.2000000000000011e+00 0.0000000000000000e+00 0.0000000000000000e+00
9.3000000000000007e+00 0.0000000000000000e+00 0.0000000000000000e+00
9.4000000000000004e+00 0.0000000000000000e+00 0.0000000000000000e+00
9.5000000000000000e+00 0.0000000000000000e+00 0.0000000000000000e+00
9.6000000000000014e+00 0.0000000000000000e+00 0.0000000000000000e+00
9.7000000000000011e+00 0.0000000000000000e+00 0.0000000000000000e+00
9.8000000000000007e+00 0.0000000000000000e+00 0.0000000000000000e+00
9.9000000000000004e+00 0.0000000000000000e+00 0.0000000000000000e+00
1.0000000000000000e+01 0.0000000000000000e+00 0.0000000000000000e+00

POINT_DATA 101

VECTORS velocity float
3.9315223937031241e+00 0.0000000000000000e+00 0.0000000000000000e+00
3.9314791851403030e+00 0.0000000000000000e+00 0.0000000000000000e+00
3.9314304313007038e+00 0.0000000000000000e+00 0.0000000000000000e+00
3.9313779685976353e+00 0.0000000000000000e+00 0.0000000000000000e+00
3.9313236899105917e+00 0.0000000000000000e+00 0.0000000000000000e+00
3.9312696790526469e+00 0.0000000000000000e+00 0.0000000000000000e+00
3.9312185531517496e+00 0.0000000000000000e+00 0.0000000000000000e+00
3.9311711828358087e+00 0.0000000000000000e+00 0.0000000000000000e+00
3.9311244238807932e+00 0.0000000000000000e+00 0.0000000000000000e+00
3.9310757003353496e+00 0.0000000000000000e+00 0.0000000000000000e+00
3.9310259945116530e+00 0.0000000000000000e+00 0.0000000000000000e+00
3.9309762430418362e+00 0.0000000000000000e+00 0.0000000000000000e+00
3.9309272750287056e+00 0.0000000000000000e+00 0.0000000000000000e+00
3.9308809201057628e+00 0.0000000000000000e+00 0.0000000000000000e+00
3.9308374214091848e+00 0.0000000000000000e+00 0.0000000000000000e+00
3.9307961744845699e+00 0.0000000000000000e+00 0.0000000000000000e+00
3.9307549382697351e+00 0.0000000000000000e+00 0.0000000000000000e+00
3.9307118380809412e+00 0.0000000000000000e+00 0.0000000000000000e+00
3.9306682899725147e+00 0.0000000000000000e+00 0.0000000000000000e+00
3.9306252374482571e+00 0.0000000000000000e+00 0.0000000000000000e+00
3.9305827675420661e+00 0.0000000000000000e+00 0.0000000000000000e+00
3.9305413500585886e+00 0.0000000000000000e+00 0.0000000000000000e+00
3.9305015346518752e+00 0.0000000000000000e+00 0.0000000000000000e+00
3.9304636110039941e+00 0.0000000000000000e+00 0.0000000000000000e+00
3.9304269353766395e+00 0.0000000000000000e+00 0.0000000000000000e+00
3.9303905654017619e+00 0.0000000000000000e+00 0.0000000000000000e+00
3.9303545651966898e+00 0.0000000000000000e+00 0.0000000000000000e+00
3.9303191495829890e+00 0.0000000000000000e+00 0.0000000000000000e+00
3.9302844989803396e+00 0.0000000000000000e+00 0.0000000000000000e+00
3.9302501505903837e+00 0.0000000000000000e+00 0.0000000000000000e+00
3.9302157595901459e+00 0.0000000000000000e+00 0.0000000000000000e+00
3.9301817034038566e+00 0.0000000000000000e+00 0.0000000000000000e+00
3.9301483907268526e+00 0.0000000000000000e+00 0.0000000000000000e+00
3.9301162501173126e+00 0.0000000000000000e+00 0.0000000000000000e+00
3.9300851358381097e+00 0.0000000000000000e+00 0.0000000000000000e+00
3.9300548388489687e+00 0.0000000000000000e+00 0.0000000000000000e+00
3.9300252785852661e+00 0.0000000000000000e+00 0.0000000000000000e+00
3.9299964067499391e+00 0.0000000000000000e+00 0.0000000000000000e+00
3.9299682269175915e+00 0.0000000000000000e+00 0.0000000000000000e+00
3.9299406714848923e+00 0.0000000000000000e+00 0.0000000000000000e+00
3.9299137429934854e+00 0.0000000000000000e+00 0.0000000000000000e+00
3.9298875024390147e+00 0.0000000000000000e+00 0.0000000000000000e+00
3.9298619735602482e+00 0.0000000000000000e+00 0.0000000000000000e+00
3.9298371665474980e+00 0.0000000000000000e+00 0.0000000000000000e+00
3.9298130854837687e+00 0.0000000000000000e+00 0.0000000000000000e+00
3.9297897315167973e+00 0.0000000000000000e+00 0.0000000000000000e+00
3.9297671045086315e+00 0.0000000000000000e+00 0.0000000000000000e+00
3.9297452034983271e+00 0.0000000000000000e+00 0.0000000000000000e+00
3.9297240278554639e+00 0.0000000000000000e+00 0.0000000000000000e+00
3.9297035767630679e+00 0.0000000000000000e+00 0.0000000000000000e+00
3.9296838488596211e+00 0.0000000000000000e+00 0.0000000000000000e+00
3.9296648433401979e+00 0.0000000000000000e+00 0.0000000000000000e+00
3.9296465590881584e+00 0.0000000000000000e+00 0.0000000000000000e+00
3.9296289948651792e+00 0.0000000000000000e+00 0.0000000000000000e+00
3.9296121498134253e+00 0.0000000000000000e+00 0.0000000000000000e+00
3.9295960231740921e+00 0.0000000000000000e+00 0.0000000000000000e+00
3.9295806135623406e+00 0.0000000000000000e+00 0.0000000000000000e+00
3.9295659199083310e+00 0.0000000000000000e+00 0.0000000000000000e+00
3.9295519417579845e+00 0.0000000000000000e+00 0.0000000000000000e+00
3.9295386781647550e+00 0.0000000000000000e+00 0.0000000000000000e+00
3.9295261280501137e+00 0.0000000000000000e+00 0.0000000000000000e+00
3.9295142906431733e+00 0.0000000000000000e+00 0.0000000000000000e+00
3.9295031651492058e+00 0.0000000000000000e+00 0.0000000000000000e+00
3.9294927504745760e+00 0.0000000000000000e+00 0.0000000000000000e+00
3.9294830457154606e+00 0.0000000000000000e+00 0.0000000000000000e+00
3.9294740500504561e+00 0.0000000000000000e+00 0.0000000000000000e+00
3.9294657625934293e+00 0.0000000000000000e+00 0.0000000000000000e+00
3.9294581825892072e+00 0.0000000000000000e+00 0.0000000000000000e+00
3.9294513092745169e+00 0.0000000000000000e+00 0.0000000000000000e+00
3.9294451418148801e+00 0.0000000000000000e+00 0.0000000000000000e+00
3.9294396794053212e+00 0.0000000000000000e+00 0.0000000000000000e+00
3.9294349212831299e+00 0.0000000000000000e+00 0.0000000000000000e+00
3.9294308666872113e+00 0.0000000000000000e+00 0.0000000000000000e+00
3.9294275148623892e+00 0.0000000000000000e+00 0.0000000000000000e+00
3.9294248650959793e+00 0.0000000000000000e+00 0.0000000000000000e+00
3.9294229165665060e+00 0.0000000000000000e+00 0.0000000000000000e+00
3.9294216686769459e+00 0.0000000000000000e+00 0.0000000000000000e+00
3.9294211205864009e+00 0.0000000000000000e+00 0.0000000000000000e+00
3.9294212716886170e+00 0.0000000000000000e+00 0.0000000000000000e+00
3.9294221216290230e+00 0.0000000000000000e+00 0.0000000000000000e+00
3.9294236695152711e+00 0.0000000000000000e+00 0.0000000000000000e+00
3.9294259146583341e+00 0.0000000000000000e+00 0.0000000000000000e+00
3.9294288563335136e+00 0.0000000000000000e+00 0.0000000000000000e+00
3.9294324943361967e+00 0.0000000000000000e+00 0.0000000000000000e+00
3.9294368278953233e+00 0.0000000000000000e+00 0.0000000000000000e+00
3.9294418558835962e+00 0.0000000000000000e+00 0.0000000000000000e+00
3.9294475777909281e+00 0.0000000000000000e+00 0.0000000000000000e+00
3.9294539930599166e+00 0.0000000000000000e+00 0.0000000000000000e+00
3.9294611013911935e+00 0.0000000000000000e+00 0.0000000000000000e+00
3.9294689021708860e+00 0.0000000000000000e+00 0.0000000000000000e+00
3.9294773954580307e+00 0.0000000000000000e+00 0.0000000000000000e+00
3.9294865808734709e+00 0.0000000000000000e+00 0.0000000000000000e+00
3.9294964562967918e+00 0.0000000000000000e+00 0.0000000000000000e+00
3.9295070246630117e+00 0.0000000000000000e+00 0.0000000000000000e+00
3.9295182783578504e+00 0.0000000000000000e+00 0.0000000000000000e+00
3.9295302319361531e+00 0.0000000000000000e+00 0.0000000000000000e+00
3.9295428500038527e+00 0.0000000000000000e+00 0.0000000000000000e+00
3.9295562130928610e+00 0.0000000000000000e+00 0.0000000000000000e+00
3.9295701336189133e+00 0.0000000000000000e+00 0.0000000000000000e+00
3.9295850416839126e+00 0.0000000000000000e+00 0.0000000000000000e+00
3.9295999497489120e+00 0.0000000000000000e+00 0.0000000000000000e+00


SCALARS pressure float
LOOKUP_TABLE default
4.5654581540900372e+00
4.5217676354452374e+00
4.4780771168004376e+00
4.4343561745654654e+00
4.3905962174432513e+00
4.3467898472384388e+00
4.3029289361024370e+00
4.2590032815871046e+00
4.2150093158177286e+00
4.1709590028600800e+00
4.1268630632226335e+00
4.0827189538614483e+00
4.0385235422024914e+00
3.9942740030461739e+00
3.9499638540713975e+00
3.9055924068657437e+00
3.8611625002645931e+00
3.8166833674506697e+00
3.7721631784075491e+00
3.7275976478385164e+00
3.6829834135158062e+00
3.6383204161409459e+00
3.5936074886852514e+00
3.5488431634820725e+00
3.5040269020611738e+00
3.4591612598772641e+00
3.4142500986080675e+00
3.3692940948370635e+00
3.3242930818634857e+00
3.2792469210019211e+00
3.2341578716899200e+00
3.1890279041048908e+00
3.1438562832176893e+00
3.0986419985092559e+00
3.0533839549883703e+00
3.0080831679218374e+00
2.9627410054654408e+00
2.9173583837994084e+00
2.8719360666599343e+00
2.8264746368603832e+00
2.7809748650259243e+00
2.7354371800290962e+00
2.6898618407600368e+00
2.6442492553380510e+00
2.5985998998141442e+00
2.5529142807818164e+00
2.5071929193182241e+00
2.4614363430542134e+00
2.4156450836908268e+00
2.3698196724089708e+00
2.3239606414499163e+00
2.2780685254603470e+00
2.2321438574930714e+00
2.1861871720105133e+00
2.1401990043264294e+00
2.0941798887002325e+00
2.0481303592909947e+00
2.0020509528808503e+00
1.9559422055089311e+00
1.9098046511880891e+00
1.8636388259296492e+00
1.8174452666298977e+00
1.7712245093456076e+00
1.7249770904287673e+00
1.6787035476121264e+00
1.6324044182502038e+00
1.5860802396151550e+00
1.5397315494434487e+00
1.4933588852413131e+00
1.4469627847515758e+00
1.4005437862019194e+00
1.3541024279433360e+00
1.3076392483749295e+00
1.2611547860871517e+00
1.2146495798504517e+00
1.1681241684641042e+00
1.1215790913067414e+00
1.0750148871226644e+00
1.0284320956800892e+00
9.8183125607622124e-01
9.3521290661613943e-01
8.8857758766273498e-01
8.4192583905999041e-01
7.9525820088199128e-01
7.4857521146068073e-01
7.0187741123134406e-01
6.5516534205780264e-01
6.0843954366381470e-01
5.6170055606080993e-01
5.1494891848623781e-01
4.6818517136226384e-01
4.2140985253792318e-01
3.7462350157147978e-01
3.2782666419708645e-01
2.8101986916291527e-01
2.3420368008656750e-01
1.8737858852517328e-01
1.4054524722231951e-01
9.3703937220696004e-02
4.6855792490854996e-02
0.0000000000000000e+00


SCALARS diameter float
LOOKUP_TABLE default
1.0004129733801455e+00
1.0004086485781709e+00
1.0004040493516022e+00
1.0004003839902218e+00
1.0003970854844155e+00
1.0003937676732768e+00
1.0003895638554923e+00
1.0003843153639236e+00
1.0003792073619684e+00
1.0003755396442773e+00
1.0003723028704850e+00
1.0003690524901716e+00
1.0003657378273341e+00
1.0003617569862706e+00
1.0003569251120026e+00
1.0003519252354771e+00
1.0003470362778009e+00
1.0003434684745938e+00
1.0003400257978865e+00
1.0003364265880770e+00
1.0003327952935548e+00
1.0003291135670607e+00
1.0003250407909969e+00
1.0003206544276129e+00
1.0003160199864476e+00
1.0003117437031208e+00
1.0003076338668995e+00
1.0003034822679744e+00
1.0002993306475558e+00
1.0002952109122210e+00
1.0002914696112881e+00
1.0002877194945339e+00
1.0002839505281491e+00
1.0002799363733244e+00
1.0002758208490650e+00
1.0002717033541304e+00
1.0002675833639614e+00
1.0002634608502863e+00
1.0002593356609348e+00
1.0002552105962086e+00
1.0002511147941344e+00
1.0002470127077510e+00
1.0002429054635158e+00
1.0002387936674364e+00
1.0002346775585516e+00
1.0002305573386867e+00
1.0002264331678381e+00
1.0002223052200561e+00
1.0002181736012896e+00
1.0002140381149076e+00
1.0002098991809429e+00
1.0002057567053628e+00
1.0002016107683502e+00
1.0001974616049198e+00
1.0001933091955590e+00
1.0001891535233862e+00
1.0001849947764536e+00
1.0001808332153244e+00
1.0001766685639708e+00
1.0001725009608942e+00
1.0001683305855995e+00
1.0001641574545312e+00
1.0001599815607174e+00
1.0001558030935358e+00
1.0001516221556692e+00
1.0001474387474851e+00
1.0001432529938414e+00
1.0001390649249207e+00
1.0001348745902483e+00
1.0001306820795928e+00
1.0001264874786806e+00
1.0001222908389529e+00
1.0001180922353028e+00
1.0001138917345835e+00
1.0001096894029315e+00
1.0001054853212612e+00
1.0001012795716000e+00
1.0000970721582960e+00
1.0000928632920532e+00
1.0000886527387267e+00
1.0000844407739593e+00
1.0000802274616711e+00
1.0000760128673107e+00
1.0000717969798911e+00
1.0000675797416756e+00
1.0000633616453223e+00
1.0000591425655494e+00
1.0000549225906863e+00
1.0000507017095541e+00
1.0000464799088089e+00
1.0000422572822956e+00
1.0000380334846530e+00
1.0000338095212962e+00
1.0000295844766705e+00
1.0000253591005326e+00
1.0000211332840248e+00
1.0000169070921345e+00
1.0000126805854814e+00
1.0000084538218625e+00
1.0000042269425595e+00
1.0000000000067957e+00


SCALARS iters float
LOOKUP_TABLE default
3.0000000000000000e+00
3.0000000000000000e+00
3.0000000000000000e+00
3.0000000000000000e+00
3.0000000000000000e+00
3.0000000000000000e+00
3.0000000000000000e+00
3.0000000000000000e+00
3.0000000000000000e+00
3.0000000000000000e+00
3.0000000000000000e+00
3.0000000000000000e+00
3.0000000000000000e+00
3.0000000000000000e+00
3.0000000000000000e+00
3.0000000000000000e+00
3.0000000000000000e+00
3.0000000000000000e+00
3.0000000000000000e+00
3.0000000000000000e+00
3.0000000000000000e+00
3.0000000000000000e+00
3.0000000000000000e+00
3.0000000000000000e+00
3.0000000000000000e+00
3.0000000000000000e+00
3.0000000000000000e+00
3.0000000000000000e+00
3.0000000000000000e+00
3.0000000000000000e+00
3.0000000000000000e+00
3.0000000000000000e+00
3.0000000000000000e+00
3.0000000000000000e+00
3.0000000000000000e+00
3.0000000000000000e+00
3.0000000000000000e+00
3.0000000000000000e+00
3.0000000000000000e+00
3.0000000000000000e+00
3.0000000000000000e+00
3.0000000000000000e+00
3.0000000000000000e+00
3.0000000000000000e+00
3.0000000000000000e+00
3.0000000000000000e+00
3.0000000000000000e+00
3.0000000000000000e+00
3.0000000000000000e+00
3.0000000000000000e+00
3.0000000000000000e+00
3.0000000000000000e+00
3.0000000000000000e+00
3.0000000000000000e+00
3.0000000000000000e+00
3.0000000000000000e+00
3.0000000000000000e+00
3.0000000000000000e+00
3.0000000000000000e+00
3.0000000000000000e+00
3.0000000000000000e+00
3.0000000000000000e+00
3.0000000000000000e+00
3.0000000000000000e+00
3.0000000000000000e+00
3.0000000000000000e+00
3.0000000000000000e+00
3.0000000000000000e+00
3.0000000000000000e+00
3.0000000000000000e+00
3.0000000000000000e+00
3.0000000000000000e+00
3.0000000000000000e+00
3.0000000000000000e+00
3.0000000000000000e+00
3.0000000000000000e+00
3.0000000000000000e+00
3.0000000000000000e+00
3.0000000000000000e+00
3.0000000000000000e+00
3.0000000000000000e+00
3.0000000000000000e+00
3.0000000000000000e+00
3.0000000000000000e+00
3.0000000000000000e+00
3.0000000000000000e+00
3.0000000000000000e+00
3.0000000000000000e+00
3.0000000000000000e+00
3.0000000000000000e+00
3.0000000000000000e+00
3.0000000000000000e+00
3.0000000000000000e+00
3.0000000000000000e+00
3.0000000000000000e+00
3.0000000000000000e+00
3.0000000000000000e+00
3.0000000000000000e+00
3.0000000000000000e+00
3.0000000000000000e+00
3.0000000000000000e+00


