# vtk DataFile Version 2.0

ASCII

DATASET UNSTRUCTURED_GRID

POINTS 101 float

0.0000000000000000e+00 0.0000000000000000e+00 0.0000000000000000e+00
1.0000000000000001e-01 0.0000000000000000e+00 0.0000000000000000e+00
2.0000000000000001e-01 0.0000000000000000e+00 0.0000000000000000e+00
3.0000000000000004e-01 0.0000000000000000e+00 0.0000000000000000e+00
4.0000000000000002e-01 0.0000000000000000e+00 0.0000000000000000e+00
5.0000000000000000e-01 0.0000000000000000e+00 0.0000000000000000e+00
6.0000000000000009e-01 0.0000000000000000e+00 0.0000000000000000e+00
7.0000000000000007e-01 0.0000000000000000e+00 0.0000000000000000e+00
8.0000000000000004e-01 0.0000000000000000e+00 0.0000000000000000e+00
9.0000000000000002e-01 0.0000000000000000e+00 0.0000000000000000e+00
1.0000000000000000e+00 0.0000000000000000e+00 0.0000000000000000e+00
1.1000000000000001e+00 0.0000000000000000e+00 0.0000000000000000e+00
1.2000000000000002e+00 0.0000000000000000e+00 0.0000000000000000e+00
1.3000000000000000e+00 0.0000000000000000e+00 0.0000000000000000e+00
1.4000000000000001e+00 0.0000000000000000e+00 0.0000000000000000e+00
1.5000000000000000e+00 0.0000000000000000e+00 0.0000000000000000e+00
1.6000000000000001e+00 0.0000000000000000e+00 0.0000000000000000e+00
1.7000000000000002e+00 0.0000000000000000e+00 0.0000000000000000e+00
1.8000000000000000e+00 0.0000000000000000e+00 0.0000000000000000e+00
1.9000000000000001e+00 0.0000000000000000e+00 0.0000000000000000e+00
2.0000000000000000e+00 0.0000000000000000e+00 0.0000000000000000e+00
2.1000000000000001e+00 0.0000000000000000e+00 0.0000000000000000e+00
2.2000000000000002e+00 0.0000000000000000e+00 0.0000000000000000e+00
2.3000000000000003e+00 0.0000000000000000e+00 0.0000000000000000e+00
2.4000000000000004e+00 0.0000000000000000e+00 0.0000000000000000e+00
2.5000000000000000e+00 0.0000000000000000e+00 0.0000000000000000e+00
2.6000000000000001e+00 0.0000000000000000e+00 0.0000000000000000e+00
2.7000000000000002e+00 0.0000000000000000e+00 0.0000000000000000e+00
2.8000000000000003e+00 0.0000000000000000e+00 0.0000000000000000e+00
2.9000000000000004e+00 0.0000000000000000e+00 0.0000000000000000e+00
3.0000000000000000e+00 0.0000000000000000e+00 0.0000000000000000e+00
3.1000000000000001e+00 0.0000000000000000e+00 0.0000000000000000e+00
3.2000000000000002e+00 0.0000000000000000e+00 0.0000000000000000e+00
3.3000000000000003e+00 0.0000000000000000e+00 0.0000000000000000e+00
3.4000000000000004e+00 0.0000000000000000e+00 0.0000000000000000e+00
3.5000000000000000e+00 0.0000000000000000e+00 0.0000000000000000e+00
3.6000000000000001e+00 0.0000000000000000e+00 0.0000000000000000e+00
3.7000000000000002e+00 0.0000000000000000e+00 0.0000000000000000e+00
3.8000000000000003e+00 0.0000000000000000e+00 0.0000000000000000e+00
3.9000000000000004e+00 0.0000000000000000e+00 0.0000000000000000e+00
4.0000000000000000e+00 0.0000000000000000e+00 0.0000000000000000e+00
4.1000000000000005e+00 0.0000000000000000e+00 0.0000000000000000e+00
4.2000000000000002e+00 0.0000000000000000e+00 0.0000000000000000e+00
4.2999999999999998e+00 0.0000000000000000e+00 0.0000000000000000e+00
4.4000000000000004e+00 0.0000000000000000e+00 0.0000000000000000e+00
4.5000000000000000e+00 0.0000000000000000e+00 0.0000000000000000e+00
4.6000000000000005e+00 0.0000000000000000e+00 0.0000000000000000e+00
4.7000000000000002e+00 0.0000000000000000e+00 0.0000000000000000e+00
4.8000000000000007e+00 0.0000000000000000e+00 0.0000000000000000e+00
4.9000000000000004e+00 0.0000000000000000e+00 0.0000000000000000e+00
5.0000000000000000e+00 0.0000000000000000e+00 0.0000000000000000e+00
5.1000000000000005e+00 0.0000000000000000e+00 0.0000000000000000e+00
5.2000000000000002e+00 0.0000000000000000e+00 0.0000000000000000e+00
5.3000000000000007e+00 0.0000000000000000e+00 0.0000000000000000e+00
5.4000000000000004e+00 0.0000000000000000e+00 0.0000000000000000e+00
5.5000000000000000e+00 0.0000000000000000e+00 0.0000000000000000e+00
5.6000000000000005e+00 0.0000000000000000e+00 0.0000000000000000e+00
5.7000000000000002e+00 0.0000000000000000e+00 0.0000000000000000e+00
5.8000000000000007e+00 0.0000000000000000e+00 0.0000000000000000e+00
5.9000000000000004e+00 0.0000000000000000e+00 0.0000000000000000e+00
6.0000000000000000e+00 0.0000000000000000e+00 0.0000000000000000e+00
6.1000000000000005e+00 0.0000000000000000e+00 0.0000000000000000e+00
6.2000000000000002e+00 0.0000000000000000e+00 0.0000000000000000e+00
6.3000000000000007e+00 0.0000000000000000e+00 0.0000000000000000e+00
6.4000000000000004e+00 0.0000000000000000e+00 0.0000000000000000e+00
6.5000000000000000e+00 0.0000000000000000e+00 0.0000000000000000e+00
6.6000000000000005e+00 0.0000000000000000e+00 0.0000000000000000e+00
6.7000000000000002e+00 0.0000000000000000e+00 0.0000000000000000e+00
6.8000000000000007e+00 0.0000000000000000e+00 0.0000000000000000e+00
6.9000000000000004e+00 0.0000000000000000e+00 0.0000000000000000e+00
7.0000000000000000e+00 0.0000000000000000e+00 0.0000000000000000e+00
7.1000000000000005e+00 0.0000000000000000e+00 0.0000000000000000e+00
7.2000000000000002e+00 0.0000000000000000e+00 0.0000000000000000e+00
7.3000000000000007e+00 0.0000000000000000e+00 0.0000000000000000e+00
7.4000000000000004e+00 0.0000000000000000e+00 0.0000000000000000e+00
7.5000000000000000e+00 0.0000000000000000e+00 0.0000000000000000e+00
7.6000000000000005e+00 0.0000000000000000e+00 0.0000000000000000e+00
7.7000000000000002e+00 0.0000000000000000e+00 0.0000000000000000e+00
7.8000000000000007e+00 0.0000000000000000e+00 0.0000000000000000e+00
7.9000000000000004e+00 0.0000000000000000e+00 0.0000000000000000e+00
8.0000000000000000e+00 0.0000000000000000e+00 0.0000000000000000e+00
8.0999999999999996e+00 0.0000000000000000e+00 0.0000000000000000e+00
8.2000000000000011e+00 0.0000000000000000e+00 0.0000000000000000e+00
8.3000000000000007e+00 0.0000000000000000e+00 0.0000000000000000e+00
8.4000000000000004e+00 0.0000000000000000e+00 0.0000000000000000e+00
8.5000000000000000e+00 0.0000000000000000e+00 0.0000000000000000e+00
8.5999999999999996e+00 0.0000000000000000e+00 0.0000000000000000e+00
8.7000000000000011e+00 0.0000000000000000e+00 0.0000000000000000e+00
8.8000000000000007e+00 0.0000000000000000e+00 0.0000000000000000e+00
8.9000000000000004e+00 0.0000000000000000e+00 0.0000000000000000e+00
9.0000000000000000e+00 0.0000000000000000e+00 0.0000000000000000e+00
9.0999999999999996e+00 0.0000000000000000e+00 0.0000000000000000e+00
9.2000000000000011e+00 0.0000000000000000e+00 0.0000000000000000e+00
9.3000000000000007e+00 0.0000000000000000e+00 0.0000000000000000e+00
9.4000000000000004e+00 0.0000000000000000e+00 0.0000000000000000e+00
9.5000000000000000e+00 0.0000000000000000e+00 0.0000000000000000e+00
9.6000000000000014e+00 0.0000000000000000e+00 0.0000000000000000e+00
9.7000000000000011e+00 0.0000000000000000e+00 0.0000000000000000e+00
9.8000000000000007e+00 0.0000000000000000e+00 0.0000000000000000e+00
9.9000000000000004e+00 0.0000000000000000e+00 0.0000000000000000e+00
1.0000000000000000e+01 0.0000000000000000e+00 0.0000000000000000e+00

POINT_DATA 101

VECTORS velocity float
4.0175504134852682e+00 0.0000000000000000e+00 0.0000000000000000e+00
4.0178049437394519e+00 0.0000000000000000e+00 0.0000000000000000e+00
4.0180605838107857e+00 0.0000000000000000e+00 0.0000000000000000e+00
4.0183157004827263e+00 0.0000000000000000e+00 0.0000000000000000e+00
4.0185692900730077e+00 0.0000000000000000e+00 0.0000000000000000e+00
4.0188211327883900e+00 0.0000000000000000e+00 0.0000000000000000e+00
4.0190731423540926e+00 0.0000000000000000e+00 0.0000000000000000e+00
4.0193253345914792e+00 0.0000000000000000e+00 0.0000000000000000e+00
4.0195735897898732e+00 0.0000000000000000e+00 0.0000000000000000e+00
4.0198146047491585e+00 0.0000000000000000e+00 0.0000000000000000e+00
4.0200497611944375e+00 0.0000000000000000e+00 0.0000000000000000e+00
4.0202804547208855e+00 0.0000000000000000e+00 0.0000000000000000e+00
4.0205075072423391e+00 0.0000000000000000e+00 0.0000000000000000e+00
4.0207327488727849e+00 0.0000000000000000e+00 0.0000000000000000e+00
4.0209567904549797e+00 0.0000000000000000e+00 0.0000000000000000e+00
4.0211790024594718e+00 0.0000000000000000e+00 0.0000000000000000e+00
4.0213981477297223e+00 0.0000000000000000e+00 0.0000000000000000e+00
4.0216131580527499e+00 0.0000000000000000e+00 0.0000000000000000e+00
4.0218240884660919e+00 0.0000000000000000e+00 0.0000000000000000e+00
4.0220309731904571e+00 0.0000000000000000e+00 0.0000000000000000e+00
4.0222340412906021e+00 0.0000000000000000e+00 0.0000000000000000e+00
4.0224341899194993e+00 0.0000000000000000e+00 0.0000000000000000e+00
4.0226317958125017e+00 0.0000000000000000e+00 0.0000000000000000e+00
4.0228270810942188e+00 0.0000000000000000e+00 0.0000000000000000e+00
4.0230195038618435e+00 0.0000000000000000e+00 0.0000000000000000e+00
4.0232081960413177e+00 0.0000000000000000e+00 0.0000000000000000e+00
4.0233937995617897e+00 0.0000000000000000e+00 0.0000000000000000e+00
4.0235762581538808e+00 0.0000000000000000e+00 0.0000000000000000e+00
4.0237556270234656e+00 0.0000000000000000e+00 0.0000000000000000e+00
4.0239314473793462e+00 0.0000000000000000e+00 0.0000000000000000e+00
4.0241034151707176e+00 0.0000000000000000e+00 0.0000000000000000e+00
4.0242718737584475e+00 0.0000000000000000e+00 0.0000000000000000e+00
4.0244371351634580e+00 0.0000000000000000e+00 0.0000000000000000e+00
4.0245994836367673e+00 0.0000000000000000e+00 0.0000000000000000e+00
4.0247588225521715e+00 0.0000000000000000e+00 0.0000000000000000e+00
4.0249150346800135e+00 0.0000000000000000e+00 0.0000000000000000e+00
4.0250680603691498e+00 0.0000000000000000e+00 0.0000000000000000e+00
4.0252178947649879e+00 0.0000000000000000e+00 0.0000000000000000e+00
4.0253644795003956e+00 0.0000000000000000e+00 0.0000000000000000e+00
4.0255079446249713e+00 0.0000000000000000e+00 0.0000000000000000e+00
4.0256483840838921e+00 0.0000000000000000e+00 0.0000000000000000e+00
4.0257856747418082e+00 0.0000000000000000e+00 0.0000000000000000e+00
4.0259197661844750e+00 0.0000000000000000e+00 0.0000000000000000e+00
4.0260506342672882e+00 0.0000000000000000e+00 0.0000000000000000e+00
4.0261782671928312e+00 0.0000000000000000e+00 0.0000000000000000e+00
4.0263026591262658e+00 0.0000000000000000e+00 0.0000000000000000e+00
4.0264238072191922e+00 0.0000000000000000e+00 0.0000000000000000e+00
4.0265417101753433e+00 0.0000000000000000e+00 0.0000000000000000e+00
4.0266563677496023e+00 0.0000000000000000e+00 0.0000000000000000e+00
4.0267677797320518e+00 0.0000000000000000e+00 0.0000000000000000e+00
4.0268759458352026e+00 0.0000000000000000e+00 0.0000000000000000e+00
4.0269808660009323e+00 0.0000000000000000e+00 0.0000000000000000e+00
4.0270825404348969e+00 0.0000000000000000e+00 0.0000000000000000e+00
4.0271809693402290e+00 0.0000000000000000e+00 0.0000000000000000e+00
4.0272761529964001e+00 0.0000000000000000e+00 0.0000000000000000e+00
4.0273680917133987e+00 0.0000000000000000e+00 0.0000000000000000e+00
4.0274567850641922e+00 0.0000000000000000e+00 0.0000000000000000e+00
4.0275422331519071e+00 0.0000000000000000e+00 0.0000000000000000e+00
4.0276244368416334e+00 0.0000000000000000e+00 0.0000000000000000e+00
4.0277033964463502e+00 0.0000000000000000e+00 0.0000000000000000e+00
4.0277791122089015e+00 0.0000000000000000e+00 0.0000000000000000e+00
4.0278515844196390e+00 0.0000000000000000e+00 0.0000000000000000e+00
4.0279208132930329e+00 0.0000000000000000e+00 0.0000000000000000e+00
4.0279867988784135e+00 0.0000000000000000e+00 0.0000000000000000e+00
4.0280495413902804e+00 0.0000000000000000e+00 0.0000000000000000e+00
4.0281090411483111e+00 0.0000000000000000e+00 0.0000000000000000e+00
4.0281652983893954e+00 0.0000000000000000e+00 0.0000000000000000e+00
4.0282183134933192e+00 0.0000000000000000e+00 0.0000000000000000e+00
4.0282680868583727e+00 0.0000000000000000e+00 0.0000000000000000e+00
4.0283146188021464e+00 0.0000000000000000e+00 0.0000000000000000e+00
4.0283579096259992e+00 0.0000000000000000e+00 0.0000000000000000e+00
4.0283979596330965e+00 0.0000000000000000e+00 0.0000000000000000e+00
4.0284347691101576e+00 0.0000000000000000e+00 0.0000000000000000e+00
4.0284683384572348e+00 0.0000000000000000e+00 0.0000000000000000e+00
4.0284986681222072e+00 0.0000000000000000e+00 0.0000000000000000e+00
4.0285257583262242e+00 0.0000000000000000e+00 0.0000000000000000e+00
4.0285496097980271e+00 0.0000000000000000e+00 0.0000000000000000e+00
4.0285702225945528e+00 0.0000000000000000e+00 0.0000000000000000e+00
4.0285875973938552e+00 0.0000000000000000e+00 0.0000000000000000e+00
4.0286017351668315e+00 0.0000000000000000e+00 0.0000000000000000e+00
4.0286126356652927e+00 0.0000000000000000e+00 0.0000000000000000e+00
4.0286202991923874e+00 0.0000000000000000e+00 0.0000000000000000e+00
4.0286247261209454e+00 0.0000000000000000e+00 0.0000000000000000e+00
4.0286259181897881e+00 0.0000000000000000e+00 0.0000000000000000e+00
4.0286238753152164e+00 0.0000000000000000e+00 0.0000000000000000e+00
4.0286185963131640e+00 0.0000000000000000e+00 0.0000000000000000e+00
4.0286100812893446e+00 0.0000000000000000e+00 0.0000000000000000e+00
4.0285983315346332e+00 0.0000000000000000e+00 0.0000000000000000e+00
4.0285833489489162e+00 0.0000000000000000e+00 0.0000000000000000e+00
4.0285651337960848e+00 0.0000000000000000e+00 0.0000000000000000e+00
4.0285436876342366e+00 0.0000000000000000e+00 0.0000000000000000e+00
4.0285190077075193e+00 0.0000000000000000e+00 0.0000000000000000e+00
4.0284910978845199e+00 0.0000000000000000e+00 0.0000000000000000e+00
4.0284599522870659e+00 0.0000000000000000e+00 0.0000000000000000e+00
4.0284255902614330e+00 0.0000000000000000e+00 0.0000000000000000e+00
4.0283879636389459e+00 0.0000000000000000e+00 0.0000000000000000e+00
4.0283471935871704e+00 0.0000000000000000e+00 0.0000000000000000e+00
4.0283029817151128e+00 0.0000000000000000e+00 0.0000000000000000e+00
4.0282560696566261e+00 0.0000000000000000e+00 0.0000000000000000e+00
4.0282046242264533e+00 0.0000000000000000e+00 0.0000000000000000e+00
4.0281531787962805e+00 0.0000000000000000e+00 0.0000000000000000e+00


SCALARS pressure float
LOOKUP_TABLE default
-1.6074221879579625e+01
-1.5914122850880398e+01
-1.5754023822181169e+01
-1.5593931562051905e+01
-1.5433840657325687e+01
-1.5273747236016545e+01
-1.5113650107610802e+01
-1.4953556106534140e+01
-1.4793465808731955e+01
-1.4633363831622267e+01
-1.4473236353236629e+01
-1.4313087303328571e+01
-1.4152921989628458e+01
-1.3992743535091027e+01
-1.3832558688822541e+01
-1.3672370086303506e+01
-1.3512175402042137e+01
-1.3351970146668487e+01
-1.3191750301332167e+01
-1.3031515538553093e+01
-1.2871265501656749e+01
-1.2711000724564567e+01
-1.2550724514665312e+01
-1.2390438528101113e+01
-1.2230143733797521e+01
-1.2069837812711711e+01
-1.1909516906756549e+01
-1.1749183188917055e+01
-1.1588836539457461e+01
-1.1428477054092751e+01
-1.1268102941363464e+01
-1.1107712855700530e+01
-1.0947307914973155e+01
-1.0786889261288108e+01
-1.0626457922087743e+01
-1.0466013482174821e+01
-1.0305555353574047e+01
-1.0145083156610632e+01
-9.9845967296788380e+00
-9.8240957364127297e+00
-9.6635804957435276e+00
-9.5030512029132463e+00
-9.3425072492664416e+00
-9.1819482532928181e+00
-9.0213739516494922e+00
-8.8607841374136402e+00
-8.7001786310445350e+00
-8.5395572666064776e+00
-8.3789198852647750e+00
-8.2182663328879872e+00
-8.0575964560798070e+00
-7.8969101014358261e+00
-7.7362071165619462e+00
-7.5754873503579425e+00
-7.4147506520242139e+00
-7.2539968712677698e+00
-7.0932258581356109e+00
-6.9324374601632615e+00
-6.7716315268474849e+00
-6.6108079109150877e+00
-6.4499664634664553e+00
-6.2891070354490646e+00
-6.1282294781145987e+00
-5.9673336426536236e+00
-5.8064193798605013e+00
-5.6454865413164157e+00
-5.4845349792736382e+00
-5.3235645459112773e+00
-5.1625750941383588e+00
-5.0015664771919734e+00
-4.8405385482118382e+00
-4.6794911604625602e+00
-4.5184241674102257e+00
-4.3573374226553554e+00
-4.1962307804486239e+00
-4.0351040954697757e+00
-3.8739572218216769e+00
-3.7127900156633760e+00
-3.5516023310064533e+00
-3.3903940241500461e+00
-3.2291649529487239e+00
-3.0679149709466529e+00
-2.9066439336403298e+00
-2.7453516971414738e+00
-2.5840381230321228e+00
-2.4227030667244795e+00
-2.2613463788847756e+00
-2.0999679150093122e+00
-1.9385675355542611e+00
-1.7771451040868753e+00
-1.6157004784314850e+00
-1.4542335210246216e+00
-1.2927440783000423e+00
-1.1312320208845599e+00
-9.6969718447696418e-01
-8.0813949825261788e-01
-6.4655864207755775e-01
-4.8495492019641911e-01
-3.2332709246024016e-01
-1.6167774448721922e-01
0.0000000000000000e+00


SCALARS diameter float
LOOKUP_TABLE default
9.9854751553672372e-01
9.9856512551725518e-01
9.9858059594673176e-01
9.9859577167537683e-01
9.9861041229298375e-01
9.9862503839959127e-01
9.9863852171346035e-01
9.9865093260747628e-01
9.9866369024655322e-01
9.9867842484888480e-01
9.9869380723813328e-01
9.9870918948710385e-01
9.9872457308488505e-01
9.9873944199034015e-01
9.9875341367333537e-01
9.9876718343274162e-01
9.9878088864697057e-01
9.9879516108399002e-01
9.9880970831414428e-01
9.9882449597519707e-01
9.9883940694590612e-01
9.9885419195956793e-01
9.9886860936865607e-01
9.9888289570767907e-01
9.9889695659966937e-01
9.9891144397704279e-01
9.9892577404631855e-01
9.9894005776148320e-01
9.9895435201343308e-01
9.9896868452823828e-01
9.9898335151258932e-01
9.9899802340415489e-01
9.9901269203867060e-01
9.9902721480631040e-01
9.9904168903018553e-01
9.9905617034748939e-01
9.9907065923056504e-01
9.9908515631992600e-01
9.9909966102152581e-01
9.9911416842486023e-01
9.9912858012046335e-01
9.9914299424524922e-01
9.9915741281003723e-01
9.9917183611861715e-01
9.9918626432547253e-01
9.9920069756408036e-01
9.9921513582998434e-01
9.9922957913074240e-01
9.9924402725151618e-01
9.9925848012082419e-01
9.9927293779623338e-01
9.9928740024995188e-01
9.9930186732154302e-01
9.9931633891451777e-01
9.9933081493214437e-01
9.9934529523763804e-01
9.9935977991760816e-01
9.9937426909774341e-01
9.9938876222284356e-01
9.9940325928845675e-01
9.9941776024516193e-01
9.9943226500156135e-01
9.9944677347448607e-01
9.9946128565082348e-01
9.9947580148834714e-01
9.9949032082087341e-01
9.9950484361831349e-01
9.9951936975477429e-01
9.9953389910548607e-01
9.9954843159774986e-01
9.9956296716044368e-01
9.9957750571282900e-01
9.9959204718496109e-01
9.9960659147555331e-01
9.9962113844200695e-01
9.9963568805342184e-01
9.9965024016923387e-01
9.9966479462890612e-01
9.9967935159639665e-01
9.9969391037495714e-01
9.9970847141700026e-01
9.9972303460406053e-01
9.9973759978613819e-01
9.9975216659835597e-01
9.9976673467798383e-01
9.9978130523870690e-01
9.9979587767775002e-01
9.9981045193930707e-01
9.9982502701126441e-01
9.9983960326744936e-01
9.9985418037894624e-01
9.9986875875121806e-01
9.9988333885412983e-01
9.9989791907941106e-01
9.9991250029139722e-01
9.9992708225459193e-01
9.9994166486068814e-01
9.9995624802971117e-01
9.9997083146594368e-01
9.9998541520369610e-01
1.0000000001216813e+00


SCALARS iters float
LOOKUP_TABLE default
3.0000000000000000e+00
3.0000000000000000e+00
3.0000000000000000e+00
3.0000000000000000e+00
3.0000000000000000e+00
3.0000000000000000e+00
3.0000000000000000e+00
3.0000000000000000e+00
3.0000000000000000e+00
3.0000000000000000e+00
3.0000000000000000e+00
3.0000000000000000e+00
3.0000000000000000e+00
3.0000000000000000e+00
3.0000000000000000e+00
3.0000000000000000e+00
3.0000000000000000e+00
3.0000000000000000e+00
3.0000000000000000e+00
3.0000000000000000e+00
3.0000000000000000e+00
3.0000000000000000e+00
3.0000000000000000e+00
3.0000000000000000e+00
3.0000000000000000e+00
3.0000000000000000e+00
3.0000000000000000e+00
3.0000000000000000e+00
3.0000000000000000e+00
3.0000000000000000e+00
3.0000000000000000e+00
3.0000000000000000e+00
3.0000000000000000e+00
3.0000000000000000e+00
3.0000000000000000e+00
3.0000000000000000e+00
3.0000000000000000e+00
3.0000000000000000e+00
3.0000000000000000e+00
3.0000000000000000e+00
3.0000000000000000e+00
3.0000000000000000e+00
3.0000000000000000e+00
3.0000000000000000e+00
3.0000000000000000e+00
3.0000000000000000e+00
3.0000000000000000e+00
3.0000000000000000e+00
3.0000000000000000e+00
3.0000000000000000e+00
3.0000000000000000e+00
3.0000000000000000e+00
3.0000000000000000e+00
3.0000000000000000e+00
3.0000000000000000e+00
3.0000000000000000e+00
3.0000000000000000e+00
3.0000000000000000e+00
3.0000000000000000e+00
3.0000000000000000e+00
3.0000000000000000e+00
3.0000000000000000e+00
3.0000000000000000e+00
3.0000000000000000e+00
3.0000000000000000e+00
3.0000000000000000e+00
3.0000000000000000e+00
3.0000000000000000e+00
3.0000000000000000e+00
3.0000000000000000e+00
3.0000000000000000e+00
3.0000000000000000e+00
3.0000000000000000e+00
3.0000000000000000e+00
3.0000000000000000e+00
3.0000000000000000e+00
3.0000000000000000e+00
3.0000000000000000e+00
3.0000000000000000e+00
3.0000000000000000e+00
3.0000000000000000e+00
3.0000000000000000e+00
3.0000000000000000e+00
3.0000000000000000e+00
3.0000000000000000e+00
3.0000000000000000e+00
3.0000000000000000e+00
3.0000000000000000e+00
3.0000000000000000e+00
3.0000000000000000e+00
3.0000000000000000e+00
3.0000000000000000e+00
3.0000000000000000e+00
3.0000000000000000e+00
3.0000000000000000e+00
3.0000000000000000e+00
3.0000000000000000e+00
3.0000000000000000e+00
3.0000000000000000e+00
3.0000000000000000e+00
3.0000000000000000e+00


