# vtk DataFile Version 2.0

ASCII

DATASET UNSTRUCTURED_GRID

POINTS 101 float

0.0000000000000000e+00 0.0000000000000000e+00 0.0000000000000000e+00
1.0000000000000001e-01 0.0000000000000000e+00 0.0000000000000000e+00
2.0000000000000001e-01 0.0000000000000000e+00 0.0000000000000000e+00
3.0000000000000004e-01 0.0000000000000000e+00 0.0000000000000000e+00
4.0000000000000002e-01 0.0000000000000000e+00 0.0000000000000000e+00
5.0000000000000000e-01 0.0000000000000000e+00 0.0000000000000000e+00
6.0000000000000009e-01 0.0000000000000000e+00 0.0000000000000000e+00
7.0000000000000007e-01 0.0000000000000000e+00 0.0000000000000000e+00
8.0000000000000004e-01 0.0000000000000000e+00 0.0000000000000000e+00
9.0000000000000002e-01 0.0000000000000000e+00 0.0000000000000000e+00
1.0000000000000000e+00 0.0000000000000000e+00 0.0000000000000000e+00
1.1000000000000001e+00 0.0000000000000000e+00 0.0000000000000000e+00
1.2000000000000002e+00 0.0000000000000000e+00 0.0000000000000000e+00
1.3000000000000000e+00 0.0000000000000000e+00 0.0000000000000000e+00
1.4000000000000001e+00 0.0000000000000000e+00 0.0000000000000000e+00
1.5000000000000000e+00 0.0000000000000000e+00 0.0000000000000000e+00
1.6000000000000001e+00 0.0000000000000000e+00 0.0000000000000000e+00
1.7000000000000002e+00 0.0000000000000000e+00 0.0000000000000000e+00
1.8000000000000000e+00 0.0000000000000000e+00 0.0000000000000000e+00
1.9000000000000001e+00 0.0000000000000000e+00 0.0000000000000000e+00
2.0000000000000000e+00 0.0000000000000000e+00 0.0000000000000000e+00
2.1000000000000001e+00 0.0000000000000000e+00 0.0000000000000000e+00
2.2000000000000002e+00 0.0000000000000000e+00 0.0000000000000000e+00
2.3000000000000003e+00 0.0000000000000000e+00 0.0000000000000000e+00
2.4000000000000004e+00 0.0000000000000000e+00 0.0000000000000000e+00
2.5000000000000000e+00 0.0000000000000000e+00 0.0000000000000000e+00
2.6000000000000001e+00 0.0000000000000000e+00 0.0000000000000000e+00
2.7000000000000002e+00 0.0000000000000000e+00 0.0000000000000000e+00
2.8000000000000003e+00 0.0000000000000000e+00 0.0000000000000000e+00
2.9000000000000004e+00 0.0000000000000000e+00 0.0000000000000000e+00
3.0000000000000000e+00 0.0000000000000000e+00 0.0000000000000000e+00
3.1000000000000001e+00 0.0000000000000000e+00 0.0000000000000000e+00
3.2000000000000002e+00 0.0000000000000000e+00 0.0000000000000000e+00
3.3000000000000003e+00 0.0000000000000000e+00 0.0000000000000000e+00
3.4000000000000004e+00 0.0000000000000000e+00 0.0000000000000000e+00
3.5000000000000000e+00 0.0000000000000000e+00 0.0000000000000000e+00
3.6000000000000001e+00 0.0000000000000000e+00 0.0000000000000000e+00
3.7000000000000002e+00 0.0000000000000000e+00 0.0000000000000000e+00
3.8000000000000003e+00 0.0000000000000000e+00 0.0000000000000000e+00
3.9000000000000004e+00 0.0000000000000000e+00 0.0000000000000000e+00
4.0000000000000000e+00 0.0000000000000000e+00 0.0000000000000000e+00
4.1000000000000005e+00 0.0000000000000000e+00 0.0000000000000000e+00
4.2000000000000002e+00 0.0000000000000000e+00 0.0000000000000000e+00
4.2999999999999998e+00 0.0000000000000000e+00 0.0000000000000000e+00
4.4000000000000004e+00 0.0000000000000000e+00 0.0000000000000000e+00
4.5000000000000000e+00 0.0000000000000000e+00 0.0000000000000000e+00
4.6000000000000005e+00 0.0000000000000000e+00 0.0000000000000000e+00
4.7000000000000002e+00 0.0000000000000000e+00 0.0000000000000000e+00
4.8000000000000007e+00 0.0000000000000000e+00 0.0000000000000000e+00
4.9000000000000004e+00 0.0000000000000000e+00 0.0000000000000000e+00
5.0000000000000000e+00 0.0000000000000000e+00 0.0000000000000000e+00
5.1000000000000005e+00 0.0000000000000000e+00 0.0000000000000000e+00
5.2000000000000002e+00 0.0000000000000000e+00 0.0000000000000000e+00
5.3000000000000007e+00 0.0000000000000000e+00 0.0000000000000000e+00
5.4000000000000004e+00 0.0000000000000000e+00 0.0000000000000000e+00
5.5000000000000000e+00 0.0000000000000000e+00 0.0000000000000000e+00
5.6000000000000005e+00 0.0000000000000000e+00 0.0000000000000000e+00
5.7000000000000002e+00 0.0000000000000000e+00 0.0000000000000000e+00
5.8000000000000007e+00 0.0000000000000000e+00 0.0000000000000000e+00
5.9000000000000004e+00 0.0000000000000000e+00 0.0000000000000000e+00
6.0000000000000000e+00 0.0000000000000000e+00 0.0000000000000000e+00
6.1000000000000005e+00 0.0000000000000000e+00 0.0000000000000000e+00
6.2000000000000002e+00 0.0000000000000000e+00 0.0000000000000000e+00
6.3000000000000007e+00 0.0000000000000000e+00 0.0000000000000000e+00
6.4000000000000004e+00 0.0000000000000000e+00 0.0000000000000000e+00
6.5000000000000000e+00 0.0000000000000000e+00 0.0000000000000000e+00
6.6000000000000005e+00 0.0000000000000000e+00 0.0000000000000000e+00
6.7000000000000002e+00 0.0000000000000000e+00 0.0000000000000000e+00
6.8000000000000007e+00 0.0000000000000000e+00 0.0000000000000000e+00
6.9000000000000004e+00 0.0000000000000000e+00 0.0000000000000000e+00
7.0000000000000000e+00 0.0000000000000000e+00 0.0000000000000000e+00
7.1000000000000005e+00 0.0000000000000000e+00 0.0000000000000000e+00
7.2000000000000002e+00 0.0000000000000000e+00 0.0000000000000000e+00
7.3000000000000007e+00 0.0000000000000000e+00 0.0000000000000000e+00
7.4000000000000004e+00 0.0000000000000000e+00 0.0000000000000000e+00
7.5000000000000000e+00 0.0000000000000000e+00 0.0000000000000000e+00
7.6000000000000005e+00 0.0000000000000000e+00 0.0000000000000000e+00
7.7000000000000002e+00 0.0000000000000000e+00 0.0000000000000000e+00
7.8000000000000007e+00 0.0000000000000000e+00 0.0000000000000000e+00
7.9000000000000004e+00 0.0000000000000000e+00 0.0000000000000000e+00
8.0000000000000000e+00 0.0000000000000000e+00 0.0000000000000000e+00
8.0999999999999996e+00 0.0000000000000000e+00 0.0000000000000000e+00
8.2000000000000011e+00 0.0000000000000000e+00 0.0000000000000000e+00
8.3000000000000007e+00 0.0000000000000000e+00 0.0000000000000000e+00
8.4000000000000004e+00 0.0000000000000000e+00 0.0000000000000000e+00
8.5000000000000000e+00 0.0000000000000000e+00 0.0000000000000000e+00
8.5999999999999996e+00 0.0000000000000000e+00 0.0000000000000000e+00
8.7000000000000011e+00 0.0000000000000000e+00 0.0000000000000000e+00
8.8000000000000007e+00 0.0000000000000000e+00 0.0000000000000000e+00
8.9000000000000004e+00 0.0000000000000000e+00 0.0000000000000000e+00
9.0000000000000000e+00 0.0000000000000000e+00 0.0000000000000000e+00
9.0999999999999996e+00 0.0000000000000000e+00 0.0000000000000000e+00
9.2000000000000011e+00 0.0000000000000000e+00 0.0000000000000000e+00
9.3000000000000007e+00 0.0000000000000000e+00 0.0000000000000000e+00
9.4000000000000004e+00 0.0000000000000000e+00 0.0000000000000000e+00
9.5000000000000000e+00 0.0000000000000000e+00 0.0000000000000000e+00
9.6000000000000014e+00 0.0000000000000000e+00 0.0000000000000000e+00
9.7000000000000011e+00 0.0000000000000000e+00 0.0000000000000000e+00
9.8000000000000007e+00 0.0000000000000000e+00 0.0000000000000000e+00
9.9000000000000004e+00 0.0000000000000000e+00 0.0000000000000000e+00
1.0000000000000000e+01 0.0000000000000000e+00 0.0000000000000000e+00

POINT_DATA 101

VECTORS velocity float
3.2081956234767981e+00 0.0000000000000000e+00 0.0000000000000000e+00
3.2079047555982010e+00 0.0000000000000000e+00 0.0000000000000000e+00
3.2076199210119207e+00 0.0000000000000000e+00 0.0000000000000000e+00
3.2073401821353240e+00 0.0000000000000000e+00 0.0000000000000000e+00
3.2070644540229054e+00 0.0000000000000000e+00 0.0000000000000000e+00
3.2067915320472222e+00 0.0000000000000000e+00 0.0000000000000000e+00
3.2065223861210139e+00 0.0000000000000000e+00 0.0000000000000000e+00
3.2062581422099004e+00 0.0000000000000000e+00 0.0000000000000000e+00
3.2059986169327739e+00 0.0000000000000000e+00 0.0000000000000000e+00
3.2057387752595163e+00 0.0000000000000000e+00 0.0000000000000000e+00
3.2054790872161676e+00 0.0000000000000000e+00 0.0000000000000000e+00
3.2052210776249779e+00 0.0000000000000000e+00 0.0000000000000000e+00
3.2049647193269797e+00 0.0000000000000000e+00 0.0000000000000000e+00
3.2047095960976151e+00 0.0000000000000000e+00 0.0000000000000000e+00
3.2044570525142526e+00 0.0000000000000000e+00 0.0000000000000000e+00
3.2042072343068724e+00 0.0000000000000000e+00 0.0000000000000000e+00
3.2039598161227576e+00 0.0000000000000000e+00 0.0000000000000000e+00
3.2037177038713684e+00 0.0000000000000000e+00 0.0000000000000000e+00
3.2034794148914378e+00 0.0000000000000000e+00 0.0000000000000000e+00
3.2032415405659052e+00 0.0000000000000000e+00 0.0000000000000000e+00
3.2030040288267285e+00 0.0000000000000000e+00 0.0000000000000000e+00
3.2027679198867354e+00 0.0000000000000000e+00 0.0000000000000000e+00
3.2025334205945577e+00 0.0000000000000000e+00 0.0000000000000000e+00
3.2023017164340786e+00 0.0000000000000000e+00 0.0000000000000000e+00
3.2020716787163961e+00 0.0000000000000000e+00 0.0000000000000000e+00
3.2018445611688651e+00 0.0000000000000000e+00 0.0000000000000000e+00
3.2016211907361045e+00 0.0000000000000000e+00 0.0000000000000000e+00
3.2014008667559302e+00 0.0000000000000000e+00 0.0000000000000000e+00
3.2011831071467949e+00 0.0000000000000000e+00 0.0000000000000000e+00
3.2009674833614414e+00 0.0000000000000000e+00 0.0000000000000000e+00
3.2007531203572199e+00 0.0000000000000000e+00 0.0000000000000000e+00
3.2005402444643924e+00 0.0000000000000000e+00 0.0000000000000000e+00
3.2003286815163192e+00 0.0000000000000000e+00 0.0000000000000000e+00
3.2001189662806815e+00 0.0000000000000000e+00 0.0000000000000000e+00
3.1999115389139203e+00 0.0000000000000000e+00 0.0000000000000000e+00
3.1997064634820624e+00 0.0000000000000000e+00 0.0000000000000000e+00
3.1995037616292858e+00 0.0000000000000000e+00 0.0000000000000000e+00
3.1993034702136405e+00 0.0000000000000000e+00 0.0000000000000000e+00
3.1991055569512832e+00 0.0000000000000000e+00 0.0000000000000000e+00
3.1989100955506764e+00 0.0000000000000000e+00 0.0000000000000000e+00
3.1987168818580516e+00 0.0000000000000000e+00 0.0000000000000000e+00
3.1985258432860340e+00 0.0000000000000000e+00 0.0000000000000000e+00
3.1983369405434634e+00 0.0000000000000000e+00 0.0000000000000000e+00
3.1981501536043839e+00 0.0000000000000000e+00 0.0000000000000000e+00
3.1979654726783662e+00 0.0000000000000000e+00 0.0000000000000000e+00
3.1977828941606345e+00 0.0000000000000000e+00 0.0000000000000000e+00
3.1976024197780863e+00 0.0000000000000000e+00 0.0000000000000000e+00
3.1974240488808516e+00 0.0000000000000000e+00 0.0000000000000000e+00
3.1972477809364466e+00 0.0000000000000000e+00 0.0000000000000000e+00
3.1970736152428181e+00 0.0000000000000000e+00 0.0000000000000000e+00
3.1969015521429376e+00 0.0000000000000000e+00 0.0000000000000000e+00
3.1967315917870551e+00 0.0000000000000000e+00 0.0000000000000000e+00
3.1965637347478251e+00 0.0000000000000000e+00 0.0000000000000000e+00
3.1963979814023999e+00 0.0000000000000000e+00 0.0000000000000000e+00
3.1962343315245256e+00 0.0000000000000000e+00 0.0000000000000000e+00
3.1960727854424453e+00 0.0000000000000000e+00 0.0000000000000000e+00
3.1959133420633803e+00 0.0000000000000000e+00 0.0000000000000000e+00
3.1957560016556745e+00 0.0000000000000000e+00 0.0000000000000000e+00
3.1956007647422338e+00 0.0000000000000000e+00 0.0000000000000000e+00
3.1954476314216032e+00 0.0000000000000000e+00 0.0000000000000000e+00
3.1952966016341429e+00 0.0000000000000000e+00 0.0000000000000000e+00
3.1951476748600052e+00 0.0000000000000000e+00 0.0000000000000000e+00
3.1950008498055449e+00 0.0000000000000000e+00 0.0000000000000000e+00
3.1948561257738142e+00 0.0000000000000000e+00 0.0000000000000000e+00
3.1947135022606181e+00 0.0000000000000000e+00 0.0000000000000000e+00
3.1945729788581567e+00 0.0000000000000000e+00 0.0000000000000000e+00
3.1944345549657589e+00 0.0000000000000000e+00 0.0000000000000000e+00
3.1942982301609097e+00 0.0000000000000000e+00 0.0000000000000000e+00
3.1941640039692039e+00 0.0000000000000000e+00 0.0000000000000000e+00
3.1940318758043471e+00 0.0000000000000000e+00 0.0000000000000000e+00
3.1939018448679461e+00 0.0000000000000000e+00 0.0000000000000000e+00
3.1937739101548304e+00 0.0000000000000000e+00 0.0000000000000000e+00
3.1936480702528067e+00 0.0000000000000000e+00 0.0000000000000000e+00
3.1935243238199615e+00 0.0000000000000000e+00 0.0000000000000000e+00
3.1934026697328175e+00 0.0000000000000000e+00 0.0000000000000000e+00
3.1932831062072857e+00 0.0000000000000000e+00 0.0000000000000000e+00
3.1931656331225642e+00 0.0000000000000000e+00 0.0000000000000000e+00
3.1930502484425598e+00 0.0000000000000000e+00 0.0000000000000000e+00
3.1929369517701764e+00 0.0000000000000000e+00 0.0000000000000000e+00
3.1928257406318519e+00 0.0000000000000000e+00 0.0000000000000000e+00
3.1927166123973207e+00 0.0000000000000000e+00 0.0000000000000000e+00
3.1926095657808937e+00 0.0000000000000000e+00 0.0000000000000000e+00
3.1925045985425378e+00 0.0000000000000000e+00 0.0000000000000000e+00
3.1924017109725096e+00 0.0000000000000000e+00 0.0000000000000000e+00
3.1923008998660505e+00 0.0000000000000000e+00 0.0000000000000000e+00
3.1922021622999348e+00 0.0000000000000000e+00 0.0000000000000000e+00
3.1921054946096210e+00 0.0000000000000000e+00 0.0000000000000000e+00
3.1920109002709602e+00 0.0000000000000000e+00 0.0000000000000000e+00
3.1919183739741506e+00 0.0000000000000000e+00 0.0000000000000000e+00
3.1918279146018365e+00 0.0000000000000000e+00 0.0000000000000000e+00
3.1917395189024225e+00 0.0000000000000000e+00 0.0000000000000000e+00
3.1916531848740139e+00 0.0000000000000000e+00 0.0000000000000000e+00
3.1915689074742732e+00 0.0000000000000000e+00 0.0000000000000000e+00
3.1914866922066043e+00 0.0000000000000000e+00 0.0000000000000000e+00
3.1914065206000553e+00 0.0000000000000000e+00 0.0000000000000000e+00
3.1913284260649997e+00 0.0000000000000000e+00 0.0000000000000000e+00
3.1912523176241061e+00 0.0000000000000000e+00 0.0000000000000000e+00
3.1911784040430335e+00 0.0000000000000000e+00 0.0000000000000000e+00
3.1911061790202586e+00 0.0000000000000000e+00 0.0000000000000000e+00
3.1910368383018173e+00 0.0000000000000000e+00 0.0000000000000000e+00
3.1909674975833755e+00 0.0000000000000000e+00 0.0000000000000000e+00


SCALARS pressure float
LOOKUP_TABLE default
-2.2384243645768368e+01
-2.2160392608841704e+01
-2.1936541571915040e+01
-2.1712683270142097e+01
-2.1488815055678536e+01
-2.1264932427245057e+01
-2.1041030955709502e+01
-2.0817112996615702e+01
-2.0593185020522032e+01
-2.0369256709176149e+01
-2.0145314591534646e+01
-1.9921362122759703e+01
-1.9697405768987625e+01
-1.9473444033531145e+01
-1.9249471264240068e+01
-1.9025490763828984e+01
-1.8801500402409982e+01
-1.8577500561119098e+01
-1.8353513050833580e+01
-1.8129537389575198e+01
-1.7905558197188469e+01
-1.7681571214576046e+01
-1.7457574706690444e+01
-1.7233564806978599e+01
-1.7009546304066149e+01
-1.6785523479589198e+01
-1.6561506998691193e+01
-1.6337498011336411e+01
-1.6113493514329743e+01
-1.5889492153965380e+01
-1.5665492370376104e+01
-1.5441489836632694e+01
-1.5217484105790998e+01
-1.4993473069682238e+01
-1.4769459037272206e+01
-1.4545444664345510e+01
-1.4321430989638580e+01
-1.4097418826493000e+01
-1.3873408969792349e+01
-1.3649402039734882e+01
-1.3425398730520286e+01
-1.3201398320174569e+01
-1.2977400768890952e+01
-1.2753406213595850e+01
-1.2529414878650710e+01
-1.2305427028270998e+01
-1.2081442955759476e+01
-1.1857462980648091e+01
-1.1633487408921637e+01
-1.1409516543349559e+01
-1.1185550685069369e+01
-1.0961590140941180e+01
-1.0737635217175647e+01
-1.0513686221506191e+01
-1.0289743459957315e+01
-1.0065807235060459e+01
-9.8418778501824207e+00
-9.6179556026898059e+00
-9.3940407955679870e+00
-9.1701337310463362e+00
-8.9462347089523924e+00
-8.7223440278102977e+00
-8.4984619818604781e+00
-8.2745888592679471e+00
-8.0507249494298865e+00
-7.8268705412168584e+00
-7.6030259223732175e+00
-7.3791913783691534e+00
-7.1553671938473133e+00
-6.9315536516476675e+00
-6.7077510324701679e+00
-6.4839596140716633e+00
-6.2601796706095172e+00
-6.0364114710943797e+00
-5.8126552818414581e+00
-5.5889113666288166e+00
-5.3651799843794548e+00
-5.1414613983809323e+00
-4.9177558621703223e+00
-4.6940636320561397e+00
-4.4703849485543419e+00
-4.2467200498628515e+00
-4.0230691765440847e+00
-3.7994325615331892e+00
-3.5758104425860959e+00
-3.3522030411875883e+00
-3.1286105768592942e+00
-2.9050332653880999e+00
-2.6814713453855328e+00
-2.4579250072056280e+00
-2.2343944575571428e+00
-2.0108798927005074e+00
-1.7873815114479978e+00
-1.5638994932767571e+00
-1.3404340497111531e+00
-1.1169853051661667e+00
-8.9355355385151969e-01
-6.7013866257694887e-01
-4.4674151576114235e-01
-2.2336054411112929e-01
0.0000000000000000e+00


SCALARS diameter float
LOOKUP_TABLE default
9.9797974017421343e-01
9.9800254537277433e-01
9.9802412555411335e-01
9.9804529550344512e-01
9.9806563931715753e-01
9.9808591076781739e-01
9.9810543162529275e-01
9.9812358739837970e-01
9.9814069494096713e-01
9.9816072432677905e-01
9.9818174088438871e-01
9.9820271985238684e-01
9.9822390160454477e-01
9.9824530757872298e-01
9.9826567796225918e-01
9.9828571889427609e-01
9.9830523102721402e-01
9.9832369062127813e-01
9.9834302341206860e-01
9.9836395199301231e-01
9.9838528300051410e-01
9.9840631672979641e-01
9.9842663330852621e-01
9.9844624187593023e-01
9.9846554058384607e-01
9.9848637913790450e-01
9.9850647182299745e-01
9.9852646157470903e-01
9.9854645691316046e-01
9.9856648930839931e-01
9.9858691162083757e-01
9.9860732608785574e-01
9.9862778903982541e-01
9.9864806721750443e-01
9.9866823239196290e-01
9.9868839935406095e-01
9.9870856819096798e-01
9.9872873959501307e-01
9.9874891264475552e-01
9.9876909071830422e-01
9.9878929060749189e-01
9.9880948580283346e-01
9.9882967897648456e-01
9.9884987096452749e-01
9.9887006213000040e-01
9.9889025225866612e-01
9.9891044088118119e-01
9.9893062918652675e-01
9.9895081699695487e-01
9.9897100434072328e-01
9.9899119098823352e-01
9.9901137724600331e-01
9.9903156293807394e-01
9.9905174809953690e-01
9.9907193285540075e-01
9.9909211704582113e-01
9.9911230090830982e-01
9.9913248456125636e-01
9.9915266758417887e-01
9.9917285002411527e-01
9.9919303186528230e-01
9.9921321328850976e-01
9.9923339449288762e-01
9.9925357528358982e-01
9.9927375570886823e-01
9.9929393567763569e-01
9.9931411526854685e-01
9.9933429442145461e-01
9.9935447309776337e-01
9.9937465131600700e-01
9.9939482913702182e-01
9.9941500660961491e-01
9.9943518386698826e-01
9.9945536082325759e-01
9.9947553741573747e-01
9.9949571372952006e-01
9.9951588944340986e-01
9.9953606475506740e-01
9.9955623972749208e-01
9.9957641432431454e-01
9.9959658863021617e-01
9.9961676265231125e-01
9.9963693639111173e-01
9.9965710941890207e-01
9.9967728141966072e-01
9.9969745405597843e-01
9.9971762695047628e-01
9.9973779907206473e-01
9.9975797095015773e-01
9.9977814200802062e-01
9.9979831225163640e-01
9.9981848250979122e-01
9.9983865328465693e-01
9.9985882268974180e-01
9.9987899181728190e-01
9.9989916090714537e-01
9.9991932949168816e-01
9.9993949771018942e-01
9.9995966544285675e-01
9.9997983361777576e-01
1.0000000037325354e+00


SCALARS iters float
LOOKUP_TABLE default
3.0000000000000000e+00
3.0000000000000000e+00
3.0000000000000000e+00
3.0000000000000000e+00
3.0000000000000000e+00
3.0000000000000000e+00
3.0000000000000000e+00
3.0000000000000000e+00
3.0000000000000000e+00
3.0000000000000000e+00
3.0000000000000000e+00
3.0000000000000000e+00
3.0000000000000000e+00
3.0000000000000000e+00
3.0000000000000000e+00
3.0000000000000000e+00
3.0000000000000000e+00
3.0000000000000000e+00
3.0000000000000000e+00
3.0000000000000000e+00
3.0000000000000000e+00
3.0000000000000000e+00
3.0000000000000000e+00
3.0000000000000000e+00
3.0000000000000000e+00
3.0000000000000000e+00
3.0000000000000000e+00
3.0000000000000000e+00
3.0000000000000000e+00
3.0000000000000000e+00
3.0000000000000000e+00
3.0000000000000000e+00
3.0000000000000000e+00
3.0000000000000000e+00
3.0000000000000000e+00
3.0000000000000000e+00
3.0000000000000000e+00
3.0000000000000000e+00
3.0000000000000000e+00
3.0000000000000000e+00
3.0000000000000000e+00
3.0000000000000000e+00
3.0000000000000000e+00
3.0000000000000000e+00
3.0000000000000000e+00
3.0000000000000000e+00
3.0000000000000000e+00
3.0000000000000000e+00
3.0000000000000000e+00
3.0000000000000000e+00
3.0000000000000000e+00
3.0000000000000000e+00
3.0000000000000000e+00
3.0000000000000000e+00
3.0000000000000000e+00
3.0000000000000000e+00
3.0000000000000000e+00
3.0000000000000000e+00
3.0000000000000000e+00
3.0000000000000000e+00
3.0000000000000000e+00
3.0000000000000000e+00
3.0000000000000000e+00
3.0000000000000000e+00
3.0000000000000000e+00
3.0000000000000000e+00
3.0000000000000000e+00
3.0000000000000000e+00
3.0000000000000000e+00
3.0000000000000000e+00
3.0000000000000000e+00
3.0000000000000000e+00
3.0000000000000000e+00
3.0000000000000000e+00
3.0000000000000000e+00
3.0000000000000000e+00
3.0000000000000000e+00
3.0000000000000000e+00
3.0000000000000000e+00
3.0000000000000000e+00
3.0000000000000000e+00
3.0000000000000000e+00
3.0000000000000000e+00
3.0000000000000000e+00
3.0000000000000000e+00
3.0000000000000000e+00
3.0000000000000000e+00
3.0000000000000000e+00
3.0000000000000000e+00
3.0000000000000000e+00
3.0000000000000000e+00
3.0000000000000000e+00
3.0000000000000000e+00
3.0000000000000000e+00
3.0000000000000000e+00
3.0000000000000000e+00
3.0000000000000000e+00
3.0000000000000000e+00
3.0000000000000000e+00
3.0000000000000000e+00
3.0000000000000000e+00


