# vtk DataFile Version 2.0

ASCII

DATASET UNSTRUCTURED_GRID

POINTS 101 float

0.0000000000000000e+00 0.0000000000000000e+00 0.0000000000000000e+00
1.0000000000000001e-01 0.0000000000000000e+00 0.0000000000000000e+00
2.0000000000000001e-01 0.0000000000000000e+00 0.0000000000000000e+00
3.0000000000000004e-01 0.0000000000000000e+00 0.0000000000000000e+00
4.0000000000000002e-01 0.0000000000000000e+00 0.0000000000000000e+00
5.0000000000000000e-01 0.0000000000000000e+00 0.0000000000000000e+00
6.0000000000000009e-01 0.0000000000000000e+00 0.0000000000000000e+00
7.0000000000000007e-01 0.0000000000000000e+00 0.0000000000000000e+00
8.0000000000000004e-01 0.0000000000000000e+00 0.0000000000000000e+00
9.0000000000000002e-01 0.0000000000000000e+00 0.0000000000000000e+00
1.0000000000000000e+00 0.0000000000000000e+00 0.0000000000000000e+00
1.1000000000000001e+00 0.0000000000000000e+00 0.0000000000000000e+00
1.2000000000000002e+00 0.0000000000000000e+00 0.0000000000000000e+00
1.3000000000000000e+00 0.0000000000000000e+00 0.0000000000000000e+00
1.4000000000000001e+00 0.0000000000000000e+00 0.0000000000000000e+00
1.5000000000000000e+00 0.0000000000000000e+00 0.0000000000000000e+00
1.6000000000000001e+00 0.0000000000000000e+00 0.0000000000000000e+00
1.7000000000000002e+00 0.0000000000000000e+00 0.0000000000000000e+00
1.8000000000000000e+00 0.0000000000000000e+00 0.0000000000000000e+00
1.9000000000000001e+00 0.0000000000000000e+00 0.0000000000000000e+00
2.0000000000000000e+00 0.0000000000000000e+00 0.0000000000000000e+00
2.1000000000000001e+00 0.0000000000000000e+00 0.0000000000000000e+00
2.2000000000000002e+00 0.0000000000000000e+00 0.0000000000000000e+00
2.3000000000000003e+00 0.0000000000000000e+00 0.0000000000000000e+00
2.4000000000000004e+00 0.0000000000000000e+00 0.0000000000000000e+00
2.5000000000000000e+00 0.0000000000000000e+00 0.0000000000000000e+00
2.6000000000000001e+00 0.0000000000000000e+00 0.0000000000000000e+00
2.7000000000000002e+00 0.0000000000000000e+00 0.0000000000000000e+00
2.8000000000000003e+00 0.0000000000000000e+00 0.0000000000000000e+00
2.9000000000000004e+00 0.0000000000000000e+00 0.0000000000000000e+00
3.0000000000000000e+00 0.0000000000000000e+00 0.0000000000000000e+00
3.1000000000000001e+00 0.0000000000000000e+00 0.0000000000000000e+00
3.2000000000000002e+00 0.0000000000000000e+00 0.0000000000000000e+00
3.3000000000000003e+00 0.0000000000000000e+00 0.0000000000000000e+00
3.4000000000000004e+00 0.0000000000000000e+00 0.0000000000000000e+00
3.5000000000000000e+00 0.0000000000000000e+00 0.0000000000000000e+00
3.6000000000000001e+00 0.0000000000000000e+00 0.0000000000000000e+00
3.7000000000000002e+00 0.0000000000000000e+00 0.0000000000000000e+00
3.8000000000000003e+00 0.0000000000000000e+00 0.0000000000000000e+00
3.9000000000000004e+00 0.0000000000000000e+00 0.0000000000000000e+00
4.0000000000000000e+00 0.0000000000000000e+00 0.0000000000000000e+00
4.1000000000000005e+00 0.0000000000000000e+00 0.0000000000000000e+00
4.2000000000000002e+00 0.0000000000000000e+00 0.0000000000000000e+00
4.2999999999999998e+00 0.0000000000000000e+00 0.0000000000000000e+00
4.4000000000000004e+00 0.0000000000000000e+00 0.0000000000000000e+00
4.5000000000000000e+00 0.0000000000000000e+00 0.0000000000000000e+00
4.6000000000000005e+00 0.0000000000000000e+00 0.0000000000000000e+00
4.7000000000000002e+00 0.0000000000000000e+00 0.0000000000000000e+00
4.8000000000000007e+00 0.0000000000000000e+00 0.0000000000000000e+00
4.9000000000000004e+00 0.0000000000000000e+00 0.0000000000000000e+00
5.0000000000000000e+00 0.0000000000000000e+00 0.0000000000000000e+00
5.1000000000000005e+00 0.0000000000000000e+00 0.0000000000000000e+00
5.2000000000000002e+00 0.0000000000000000e+00 0.0000000000000000e+00
5.3000000000000007e+00 0.0000000000000000e+00 0.0000000000000000e+00
5.4000000000000004e+00 0.0000000000000000e+00 0.0000000000000000e+00
5.5000000000000000e+00 0.0000000000000000e+00 0.0000000000000000e+00
5.6000000000000005e+00 0.0000000000000000e+00 0.0000000000000000e+00
5.7000000000000002e+00 0.0000000000000000e+00 0.0000000000000000e+00
5.8000000000000007e+00 0.0000000000000000e+00 0.0000000000000000e+00
5.9000000000000004e+00 0.0000000000000000e+00 0.0000000000000000e+00
6.0000000000000000e+00 0.0000000000000000e+00 0.0000000000000000e+00
6.1000000000000005e+00 0.0000000000000000e+00 0.0000000000000000e+00
6.2000000000000002e+00 0.0000000000000000e+00 0.0000000000000000e+00
6.3000000000000007e+00 0.0000000000000000e+00 0.0000000000000000e+00
6.4000000000000004e+00 0.0000000000000000e+00 0.0000000000000000e+00
6.5000000000000000e+00 0.0000000000000000e+00 0.0000000000000000e+00
6.6000000000000005e+00 0.0000000000000000e+00 0.0000000000000000e+00
6.7000000000000002e+00 0.0000000000000000e+00 0.0000000000000000e+00
6.8000000000000007e+00 0.0000000000000000e+00 0.0000000000000000e+00
6.9000000000000004e+00 0.0000000000000000e+00 0.0000000000000000e+00
7.0000000000000000e+00 0.0000000000000000e+00 0.0000000000000000e+00
7.1000000000000005e+00 0.0000000000000000e+00 0.0000000000000000e+00
7.2000000000000002e+00 0.0000000000000000e+00 0.0000000000000000e+00
7.3000000000000007e+00 0.0000000000000000e+00 0.0000000000000000e+00
7.4000000000000004e+00 0.0000000000000000e+00 0.0000000000000000e+00
7.5000000000000000e+00 0.0000000000000000e+00 0.0000000000000000e+00
7.6000000000000005e+00 0.0000000000000000e+00 0.0000000000000000e+00
7.7000000000000002e+00 0.0000000000000000e+00 0.0000000000000000e+00
7.8000000000000007e+00 0.0000000000000000e+00 0.0000000000000000e+00
7.9000000000000004e+00 0.0000000000000000e+00 0.0000000000000000e+00
8.0000000000000000e+00 0.0000000000000000e+00 0.0000000000000000e+00
8.0999999999999996e+00 0.0000000000000000e+00 0.0000000000000000e+00
8.2000000000000011e+00 0.0000000000000000e+00 0.0000000000000000e+00
8.3000000000000007e+00 0.0000000000000000e+00 0.0000000000000000e+00
8.4000000000000004e+00 0.0000000000000000e+00 0.0000000000000000e+00
8.5000000000000000e+00 0.0000000000000000e+00 0.0000000000000000e+00
8.5999999999999996e+00 0.0000000000000000e+00 0.0000000000000000e+00
8.7000000000000011e+00 0.0000000000000000e+00 0.0000000000000000e+00
8.8000000000000007e+00 0.0000000000000000e+00 0.0000000000000000e+00
8.9000000000000004e+00 0.0000000000000000e+00 0.0000000000000000e+00
9.0000000000000000e+00 0.0000000000000000e+00 0.0000000000000000e+00
9.0999999999999996e+00 0.0000000000000000e+00 0.0000000000000000e+00
9.2000000000000011e+00 0.0000000000000000e+00 0.0000000000000000e+00
9.3000000000000007e+00 0.0000000000000000e+00 0.0000000000000000e+00
9.4000000000000004e+00 0.0000000000000000e+00 0.0000000000000000e+00
9.5000000000000000e+00 0.0000000000000000e+00 0.0000000000000000e+00
9.6000000000000014e+00 0.0000000000000000e+00 0.0000000000000000e+00
9.7000000000000011e+00 0.0000000000000000e+00 0.0000000000000000e+00
9.8000000000000007e+00 0.0000000000000000e+00 0.0000000000000000e+00
9.9000000000000004e+00 0.0000000000000000e+00 0.0000000000000000e+00
1.0000000000000000e+01 0.0000000000000000e+00 0.0000000000000000e+00

POINT_DATA 101

VECTORS velocity float
3.2102723846061085e+00 0.0000000000000000e+00 0.0000000000000000e+00
3.2096301670437017e+00 0.0000000000000000e+00 0.0000000000000000e+00
3.2089137926667881e+00 0.0000000000000000e+00 0.0000000000000000e+00
3.2081706736036408e+00 0.0000000000000000e+00 0.0000000000000000e+00
3.2074212518255067e+00 0.0000000000000000e+00 0.0000000000000000e+00
3.2066742421246555e+00 0.0000000000000000e+00 0.0000000000000000e+00
3.2059326731576849e+00 0.0000000000000000e+00 0.0000000000000000e+00
3.2052012647949457e+00 0.0000000000000000e+00 0.0000000000000000e+00
3.2044803615084878e+00 0.0000000000000000e+00 0.0000000000000000e+00
3.2037663865624162e+00 0.0000000000000000e+00 0.0000000000000000e+00
3.2030597346405791e+00 0.0000000000000000e+00 0.0000000000000000e+00
3.2023613285182368e+00 0.0000000000000000e+00 0.0000000000000000e+00
3.2016711365867736e+00 0.0000000000000000e+00 0.0000000000000000e+00
3.2009889271557155e+00 0.0000000000000000e+00 0.0000000000000000e+00
3.2003148638503740e+00 0.0000000000000000e+00 0.0000000000000000e+00
3.1996495197666426e+00 0.0000000000000000e+00 0.0000000000000000e+00
3.1989914391262926e+00 0.0000000000000000e+00 0.0000000000000000e+00
3.1983382656435930e+00 0.0000000000000000e+00 0.0000000000000000e+00
3.1976908746390422e+00 0.0000000000000000e+00 0.0000000000000000e+00
3.1970502234626013e+00 0.0000000000000000e+00 0.0000000000000000e+00
3.1964171060542199e+00 0.0000000000000000e+00 0.0000000000000000e+00
3.1957931777415882e+00 0.0000000000000000e+00 0.0000000000000000e+00
3.1951804920106559e+00 0.0000000000000000e+00 0.0000000000000000e+00
3.1945800691925443e+00 0.0000000000000000e+00 0.0000000000000000e+00
3.1939864783933998e+00 0.0000000000000000e+00 0.0000000000000000e+00
3.1933965261585873e+00 0.0000000000000000e+00 0.0000000000000000e+00
3.1928151891871472e+00 0.0000000000000000e+00 0.0000000000000000e+00
3.1922424011183494e+00 0.0000000000000000e+00 0.0000000000000000e+00
3.1916780832312410e+00 0.0000000000000000e+00 0.0000000000000000e+00
3.1911217934991076e+00 0.0000000000000000e+00 0.0000000000000000e+00
3.1905732357479266e+00 0.0000000000000000e+00 0.0000000000000000e+00
3.1900327434200006e+00 0.0000000000000000e+00 0.0000000000000000e+00
3.1895007659522636e+00 0.0000000000000000e+00 0.0000000000000000e+00
3.1889777059538607e+00 0.0000000000000000e+00 0.0000000000000000e+00
3.1884633792301855e+00 0.0000000000000000e+00 0.0000000000000000e+00
3.1879575117012147e+00 0.0000000000000000e+00 0.0000000000000000e+00
3.1874600275343061e+00 0.0000000000000000e+00 0.0000000000000000e+00
3.1869708583583409e+00 0.0000000000000000e+00 0.0000000000000000e+00
3.1864901073811538e+00 0.0000000000000000e+00 0.0000000000000000e+00
3.1860175187313162e+00 0.0000000000000000e+00 0.0000000000000000e+00
3.1855530642685403e+00 0.0000000000000000e+00 0.0000000000000000e+00
3.1850970651512447e+00 0.0000000000000000e+00 0.0000000000000000e+00
3.1846496752462321e+00 0.0000000000000000e+00 0.0000000000000000e+00
3.1842109643442753e+00 0.0000000000000000e+00 0.0000000000000000e+00
3.1837809695315231e+00 0.0000000000000000e+00 0.0000000000000000e+00
3.1833597150301287e+00 0.0000000000000000e+00 0.0000000000000000e+00
3.1829472197944009e+00 0.0000000000000000e+00 0.0000000000000000e+00
3.1825435001896385e+00 0.0000000000000000e+00 0.0000000000000000e+00
3.1821485725562382e+00 0.0000000000000000e+00 0.0000000000000000e+00
3.1817624529504416e+00 0.0000000000000000e+00 0.0000000000000000e+00
3.1813851560973752e+00 0.0000000000000000e+00 0.0000000000000000e+00
3.1810166973100067e+00 0.0000000000000000e+00 0.0000000000000000e+00
3.1806570911398038e+00 0.0000000000000000e+00 0.0000000000000000e+00
3.1803063513133329e+00 0.0000000000000000e+00 0.0000000000000000e+00
3.1799644919684948e+00 0.0000000000000000e+00 0.0000000000000000e+00
3.1796315275089593e+00 0.0000000000000000e+00 0.0000000000000000e+00
3.1793074715025629e+00 0.0000000000000000e+00 0.0000000000000000e+00
3.1789923368440896e+00 0.0000000000000000e+00 0.0000000000000000e+00
3.1786861369371264e+00 0.0000000000000000e+00 0.0000000000000000e+00
3.1783888845901238e+00 0.0000000000000000e+00 0.0000000000000000e+00
3.1781005920166021e+00 0.0000000000000000e+00 0.0000000000000000e+00
3.1778212715019074e+00 0.0000000000000000e+00 0.0000000000000000e+00
3.1775509352463867e+00 0.0000000000000000e+00 0.0000000000000000e+00
3.1772895948053366e+00 0.0000000000000000e+00 0.0000000000000000e+00
3.1770372615911158e+00 0.0000000000000000e+00 0.0000000000000000e+00
3.1767939468421136e+00 0.0000000000000000e+00 0.0000000000000000e+00
3.1765596614311664e+00 0.0000000000000000e+00 0.0000000000000000e+00
3.1763344160664175e+00 0.0000000000000000e+00 0.0000000000000000e+00
3.1761182211550119e+00 0.0000000000000000e+00 0.0000000000000000e+00
3.1759110867058085e+00 0.0000000000000000e+00 0.0000000000000000e+00
3.1757130225387589e+00 0.0000000000000000e+00 0.0000000000000000e+00
3.1755240382586232e+00 0.0000000000000000e+00 0.0000000000000000e+00
3.1753441432184668e+00 0.0000000000000000e+00 0.0000000000000000e+00
3.1751733464613294e+00 0.0000000000000000e+00 0.0000000000000000e+00
3.1750116566391711e+00 0.0000000000000000e+00 0.0000000000000000e+00
3.1748590823045535e+00 0.0000000000000000e+00 0.0000000000000000e+00
3.1747156315562037e+00 0.0000000000000000e+00 0.0000000000000000e+00
3.1745813124123550e+00 0.0000000000000000e+00 0.0000000000000000e+00
3.1744561323459624e+00 0.0000000000000000e+00 0.0000000000000000e+00
3.1743400987712858e+00 0.0000000000000000e+00 0.0000000000000000e+00
3.1742332192526703e+00 0.0000000000000000e+00 0.0000000000000000e+00
3.1741355004498901e+00 0.0000000000000000e+00 0.0000000000000000e+00
3.1740469489519110e+00 0.0000000000000000e+00 0.0000000000000000e+00
3.1739675708036819e+00 0.0000000000000000e+00 0.0000000000000000e+00
3.1738973726281783e+00 0.0000000000000000e+00 0.0000000000000000e+00
3.1738363599430293e+00 0.0000000000000000e+00 0.0000000000000000e+00
3.1737845382775061e+00 0.0000000000000000e+00 0.0000000000000000e+00
3.1737419134940890e+00 0.0000000000000000e+00 0.0000000000000000e+00
3.1737084900270149e+00 0.0000000000000000e+00 0.0000000000000000e+00
3.1736842732913577e+00 0.0000000000000000e+00 0.0000000000000000e+00
3.1736692646175810e+00 0.0000000000000000e+00 0.0000000000000000e+00
3.1736634761037061e+00 0.0000000000000000e+00 0.0000000000000000e+00
3.1736668946298812e+00 0.0000000000000000e+00 0.0000000000000000e+00
3.1736795641839972e+00 0.0000000000000000e+00 0.0000000000000000e+00
3.1737013933373790e+00 0.0000000000000000e+00 0.0000000000000000e+00
3.1737326020689647e+00 0.0000000000000000e+00 0.0000000000000000e+00
3.1737726942088962e+00 0.0000000000000000e+00 0.0000000000000000e+00
3.1738228157579433e+00 0.0000000000000000e+00 0.0000000000000000e+00
3.1738803606749766e+00 0.0000000000000000e+00 0.0000000000000000e+00
3.1739512474041724e+00 0.0000000000000000e+00 0.0000000000000000e+00
3.1740221341333688e+00 0.0000000000000000e+00 0.0000000000000000e+00


SCALARS pressure float
LOOKUP_TABLE default
3.0908321705809961e+01
3.0618128269465881e+01
3.0327934833121805e+01
3.0037397669216372e+01
2.9746402939999882e+01
2.9454901872168143e+01
2.9162876491300814e+01
2.8870324845862935e+01
2.8577235114933067e+01
2.8283609130492373e+01
2.7989462519893159e+01
2.7694797646420824e+01
2.7399615629526728e+01
2.7103921495306377e+01
2.6807722414872664e+01
2.6511024358200174e+01
2.6213830773912107e+01
2.5916151848340935e+01
2.5618000883697743e+01
2.5319380741874944e+01
2.5020294255035893e+01
2.4720743973901282e+01
2.4420728267916733e+01
2.4120243502818187e+01
2.3819289566887996e+01
2.3517892543491076e+01
2.3216069841090210e+01
2.2913807954480504e+01
2.2611112242650972e+01
2.2307987769013380e+01
2.2004441026263606e+01
2.1700477978955302e+01
2.1396102561226115e+01
2.1091318444516606e+01
2.0786129673416472e+01
2.0480542122913899e+01
2.0174561794470939e+01
1.9868194019079965e+01
1.9561444111836977e+01
1.9254316876523905e+01
1.8946818157958241e+01
1.8638952522678778e+01
1.8330723760977673e+01
1.8022136333883875e+01
1.7713194976413735e+01
1.7403904527325842e+01
1.7094269867006933e+01
1.6784295894247002e+01
1.6473987518210659e+01
1.6163349650065676e+01
1.5852387204659145e+01
1.5541105103966672e+01
1.5229508270376124e+01
1.4917601631501281e+01
1.4605390120232295e+01
1.4292878670470463e+01
1.3980072217406750e+01
1.3666975701418448e+01
1.3353594067605240e+01
1.3039932261560811e+01
1.2725995233163276e+01
1.2411787936494887e+01
1.2097315327515750e+01
1.1782582364567496e+01
1.1467594010297724e+01
1.1152355229845169e+01
1.0836870990974431e+01
1.0521146264663580e+01
1.0205186024389889e+01
9.8889952465679531e+00
9.5725789108491242e+00
9.2559419993115721e+00
8.9390894965703076e+00
8.6220263898134846e+00
8.3047576690451734e+00
7.9872883273256319e+00
7.6696233596757306e+00
7.3517677644120649e+00
7.0337265415726860e+00
6.7155046948110817e+00
6.3971072292738977e+00
6.0785391510893039e+00
5.7598054710511040e+00
5.4409112015401639e+00
5.1218613582326276e+00
4.8026609557699942e+00
4.4833150144228950e+00
4.1638285557406087e+00
3.8442066008586107e+00
3.5244541764790798e+00
3.2045763081258927e+00
2.8845780362310895e+00
2.5644643672323042e+00
2.2442403896271452e+00
1.9239110092537188e+00
1.6034815671152571e+00
1.2829564152579092e+00
9.6234216308627529e-01
6.4164029680818802e-01
3.2086388821517708e-01
0.0000000000000000e+00


SCALARS diameter float
LOOKUP_TABLE default
1.0028018139655366e+00
1.0027696956227155e+00
1.0027401463902235e+00
1.0027138313877419e+00
1.0026887042495658e+00
1.0026634223802937e+00
1.0026384665266896e+00
1.0026119183970594e+00
1.0025834862405061e+00
1.0025564619581362e+00
1.0025296922009905e+00
1.0025027780917142e+00
1.0024757879482245e+00
1.0024490905870413e+00
1.0024220248392539e+00
1.0023945909908243e+00
1.0023668898535216e+00
1.0023408196370256e+00
1.0023151616349526e+00
1.0022894994203344e+00
1.0022636312806545e+00
1.0022370342114850e+00
1.0022090591046753e+00
1.0021796626534951e+00
1.0021510402310565e+00
1.0021255488873626e+00
1.0020982478533174e+00
1.0020707981071291e+00
1.0020433197396088e+00
1.0020158390719214e+00
1.0019887009095729e+00
1.0019615116252858e+00
1.0019342511697820e+00
1.0019066617060677e+00
1.0018789049532479e+00
1.0018511155724765e+00
1.0018232911678659e+00
1.0017954308589370e+00
1.0017675348094142e+00
1.0017396166509067e+00
1.0017118679390686e+00
1.0016840813906696e+00
1.0016562570271803e+00
1.0016283966194861e+00
1.0016005009366773e+00
1.0015725706076550e+00
1.0015446063147777e+00
1.0015166088361132e+00
1.0014885788547090e+00
1.0014605163440684e+00
1.0014324225266080e+00
1.0014042976404378e+00
1.0013761422091252e+00
1.0013479572806057e+00
1.0013197432614453e+00
1.0012915004506926e+00
1.0012632293509967e+00
1.0012349309916360e+00
1.0012066055622739e+00
1.0011782536368563e+00
1.0011498759711566e+00
1.0011214731065299e+00
1.0010930454111846e+00
1.0010645935852982e+00
1.0010361182256688e+00
1.0010076197951159e+00
1.0009790989206042e+00
1.0009505561135064e+00
1.0009219919161207e+00
1.0008934069349888e+00
1.0008648017503849e+00
1.0008361768565714e+00
1.0008075328410277e+00
1.0007788702054625e+00
1.0007501896357467e+00
1.0007214915983842e+00
1.0006927767230753e+00
1.0006640455658307e+00
1.0006352986448486e+00
1.0006065367349251e+00
1.0005777598917369e+00
1.0005489690823950e+00
1.0005201646455637e+00
1.0004913474314665e+00
1.0004625176315571e+00
1.0004336758764676e+00
1.0004048230023492e+00
1.0003759588765306e+00
1.0003470845882525e+00
1.0003182007076459e+00
1.0002893081498745e+00
1.0002604066287653e+00
1.0002314969319861e+00
1.0002025794936897e+00
1.0001736555308531e+00
1.0001447253738984e+00
1.0001157894873067e+00
1.0000868484520677e+00
1.0000579029916232e+00
1.0000289538689375e+00
1.0000000000556546e+00


SCALARS iters float
LOOKUP_TABLE default
3.0000000000000000e+00
3.0000000000000000e+00
3.0000000000000000e+00
3.0000000000000000e+00
3.0000000000000000e+00
3.0000000000000000e+00
3.0000000000000000e+00
3.0000000000000000e+00
3.0000000000000000e+00
3.0000000000000000e+00
3.0000000000000000e+00
3.0000000000000000e+00
3.0000000000000000e+00
3.0000000000000000e+00
3.0000000000000000e+00
3.0000000000000000e+00
3.0000000000000000e+00
3.0000000000000000e+00
3.0000000000000000e+00
3.0000000000000000e+00
3.0000000000000000e+00
3.0000000000000000e+00
3.0000000000000000e+00
3.0000000000000000e+00
3.0000000000000000e+00
3.0000000000000000e+00
3.0000000000000000e+00
3.0000000000000000e+00
3.0000000000000000e+00
3.0000000000000000e+00
3.0000000000000000e+00
3.0000000000000000e+00
3.0000000000000000e+00
3.0000000000000000e+00
3.0000000000000000e+00
3.0000000000000000e+00
3.0000000000000000e+00
3.0000000000000000e+00
3.0000000000000000e+00
3.0000000000000000e+00
3.0000000000000000e+00
3.0000000000000000e+00
3.0000000000000000e+00
3.0000000000000000e+00
3.0000000000000000e+00
3.0000000000000000e+00
3.0000000000000000e+00
3.0000000000000000e+00
3.0000000000000000e+00
3.0000000000000000e+00
3.0000000000000000e+00
3.0000000000000000e+00
3.0000000000000000e+00
3.0000000000000000e+00
3.0000000000000000e+00
3.0000000000000000e+00
3.0000000000000000e+00
3.0000000000000000e+00
3.0000000000000000e+00
3.0000000000000000e+00
3.0000000000000000e+00
3.0000000000000000e+00
3.0000000000000000e+00
3.0000000000000000e+00
3.0000000000000000e+00
3.0000000000000000e+00
3.0000000000000000e+00
3.0000000000000000e+00
3.0000000000000000e+00
3.0000000000000000e+00
3.0000000000000000e+00
3.0000000000000000e+00
3.0000000000000000e+00
3.0000000000000000e+00
3.0000000000000000e+00
3.0000000000000000e+00
3.0000000000000000e+00
3.0000000000000000e+00
3.0000000000000000e+00
3.0000000000000000e+00
3.0000000000000000e+00
3.0000000000000000e+00
3.0000000000000000e+00
3.0000000000000000e+00
3.0000000000000000e+00
3.0000000000000000e+00
3.0000000000000000e+00
3.0000000000000000e+00
3.0000000000000000e+00
3.0000000000000000e+00
3.0000000000000000e+00
3.0000000000000000e+00
3.0000000000000000e+00
3.0000000000000000e+00
3.0000000000000000e+00
3.0000000000000000e+00
3.0000000000000000e+00
3.0000000000000000e+00
3.0000000000000000e+00
3.0000000000000000e+00
3.0000000000000000e+00


