# vtk DataFile Version 2.0

ASCII

DATASET UNSTRUCTURED_GRID

POINTS 101 float

0.0000000000000000e+00 0.0000000000000000e+00 0.0000000000000000e+00
1.0000000000000001e-01 0.0000000000000000e+00 0.0000000000000000e+00
2.0000000000000001e-01 0.0000000000000000e+00 0.0000000000000000e+00
3.0000000000000004e-01 0.0000000000000000e+00 0.0000000000000000e+00
4.0000000000000002e-01 0.0000000000000000e+00 0.0000000000000000e+00
5.0000000000000000e-01 0.0000000000000000e+00 0.0000000000000000e+00
6.0000000000000009e-01 0.0000000000000000e+00 0.0000000000000000e+00
7.0000000000000007e-01 0.0000000000000000e+00 0.0000000000000000e+00
8.0000000000000004e-01 0.0000000000000000e+00 0.0000000000000000e+00
9.0000000000000002e-01 0.0000000000000000e+00 0.0000000000000000e+00
1.0000000000000000e+00 0.0000000000000000e+00 0.0000000000000000e+00
1.1000000000000001e+00 0.0000000000000000e+00 0.0000000000000000e+00
1.2000000000000002e+00 0.0000000000000000e+00 0.0000000000000000e+00
1.3000000000000000e+00 0.0000000000000000e+00 0.0000000000000000e+00
1.4000000000000001e+00 0.0000000000000000e+00 0.0000000000000000e+00
1.5000000000000000e+00 0.0000000000000000e+00 0.0000000000000000e+00
1.6000000000000001e+00 0.0000000000000000e+00 0.0000000000000000e+00
1.7000000000000002e+00 0.0000000000000000e+00 0.0000000000000000e+00
1.8000000000000000e+00 0.0000000000000000e+00 0.0000000000000000e+00
1.9000000000000001e+00 0.0000000000000000e+00 0.0000000000000000e+00
2.0000000000000000e+00 0.0000000000000000e+00 0.0000000000000000e+00
2.1000000000000001e+00 0.0000000000000000e+00 0.0000000000000000e+00
2.2000000000000002e+00 0.0000000000000000e+00 0.0000000000000000e+00
2.3000000000000003e+00 0.0000000000000000e+00 0.0000000000000000e+00
2.4000000000000004e+00 0.0000000000000000e+00 0.0000000000000000e+00
2.5000000000000000e+00 0.0000000000000000e+00 0.0000000000000000e+00
2.6000000000000001e+00 0.0000000000000000e+00 0.0000000000000000e+00
2.7000000000000002e+00 0.0000000000000000e+00 0.0000000000000000e+00
2.8000000000000003e+00 0.0000000000000000e+00 0.0000000000000000e+00
2.9000000000000004e+00 0.0000000000000000e+00 0.0000000000000000e+00
3.0000000000000000e+00 0.0000000000000000e+00 0.0000000000000000e+00
3.1000000000000001e+00 0.0000000000000000e+00 0.0000000000000000e+00
3.2000000000000002e+00 0.0000000000000000e+00 0.0000000000000000e+00
3.3000000000000003e+00 0.0000000000000000e+00 0.0000000000000000e+00
3.4000000000000004e+00 0.0000000000000000e+00 0.0000000000000000e+00
3.5000000000000000e+00 0.0000000000000000e+00 0.0000000000000000e+00
3.6000000000000001e+00 0.0000000000000000e+00 0.0000000000000000e+00
3.7000000000000002e+00 0.0000000000000000e+00 0.0000000000000000e+00
3.8000000000000003e+00 0.0000000000000000e+00 0.0000000000000000e+00
3.9000000000000004e+00 0.0000000000000000e+00 0.0000000000000000e+00
4.0000000000000000e+00 0.0000000000000000e+00 0.0000000000000000e+00
4.1000000000000005e+00 0.0000000000000000e+00 0.0000000000000000e+00
4.2000000000000002e+00 0.0000000000000000e+00 0.0000000000000000e+00
4.2999999999999998e+00 0.0000000000000000e+00 0.0000000000000000e+00
4.4000000000000004e+00 0.0000000000000000e+00 0.0000000000000000e+00
4.5000000000000000e+00 0.0000000000000000e+00 0.0000000000000000e+00
4.6000000000000005e+00 0.0000000000000000e+00 0.0000000000000000e+00
4.7000000000000002e+00 0.0000000000000000e+00 0.0000000000000000e+00
4.8000000000000007e+00 0.0000000000000000e+00 0.0000000000000000e+00
4.9000000000000004e+00 0.0000000000000000e+00 0.0000000000000000e+00
5.0000000000000000e+00 0.0000000000000000e+00 0.0000000000000000e+00
5.1000000000000005e+00 0.0000000000000000e+00 0.0000000000000000e+00
5.2000000000000002e+00 0.0000000000000000e+00 0.0000000000000000e+00
5.3000000000000007e+00 0.0000000000000000e+00 0.0000000000000000e+00
5.4000000000000004e+00 0.0000000000000000e+00 0.0000000000000000e+00
5.5000000000000000e+00 0.0000000000000000e+00 0.0000000000000000e+00
5.6000000000000005e+00 0.0000000000000000e+00 0.0000000000000000e+00
5.7000000000000002e+00 0.0000000000000000e+00 0.0000000000000000e+00
5.8000000000000007e+00 0.0000000000000000e+00 0.0000000000000000e+00
5.9000000000000004e+00 0.0000000000000000e+00 0.0000000000000000e+00
6.0000000000000000e+00 0.0000000000000000e+00 0.0000000000000000e+00
6.1000000000000005e+00 0.0000000000000000e+00 0.0000000000000000e+00
6.2000000000000002e+00 0.0000000000000000e+00 0.0000000000000000e+00
6.3000000000000007e+00 0.0000000000000000e+00 0.0000000000000000e+00
6.4000000000000004e+00 0.0000000000000000e+00 0.0000000000000000e+00
6.5000000000000000e+00 0.0000000000000000e+00 0.0000000000000000e+00
6.6000000000000005e+00 0.0000000000000000e+00 0.0000000000000000e+00
6.7000000000000002e+00 0.0000000000000000e+00 0.0000000000000000e+00
6.8000000000000007e+00 0.0000000000000000e+00 0.0000000000000000e+00
6.9000000000000004e+00 0.0000000000000000e+00 0.0000000000000000e+00
7.0000000000000000e+00 0.0000000000000000e+00 0.0000000000000000e+00
7.1000000000000005e+00 0.0000000000000000e+00 0.0000000000000000e+00
7.2000000000000002e+00 0.0000000000000000e+00 0.0000000000000000e+00
7.3000000000000007e+00 0.0000000000000000e+00 0.0000000000000000e+00
7.4000000000000004e+00 0.0000000000000000e+00 0.0000000000000000e+00
7.5000000000000000e+00 0.0000000000000000e+00 0.0000000000000000e+00
7.6000000000000005e+00 0.0000000000000000e+00 0.0000000000000000e+00
7.7000000000000002e+00 0.0000000000000000e+00 0.0000000000000000e+00
7.8000000000000007e+00 0.0000000000000000e+00 0.0000000000000000e+00
7.9000000000000004e+00 0.0000000000000000e+00 0.0000000000000000e+00
8.0000000000000000e+00 0.0000000000000000e+00 0.0000000000000000e+00
8.0999999999999996e+00 0.0000000000000000e+00 0.0000000000000000e+00
8.2000000000000011e+00 0.0000000000000000e+00 0.0000000000000000e+00
8.3000000000000007e+00 0.0000000000000000e+00 0.0000000000000000e+00
8.4000000000000004e+00 0.0000000000000000e+00 0.0000000000000000e+00
8.5000000000000000e+00 0.0000000000000000e+00 0.0000000000000000e+00
8.5999999999999996e+00 0.0000000000000000e+00 0.0000000000000000e+00
8.7000000000000011e+00 0.0000000000000000e+00 0.0000000000000000e+00
8.8000000000000007e+00 0.0000000000000000e+00 0.0000000000000000e+00
8.9000000000000004e+00 0.0000000000000000e+00 0.0000000000000000e+00
9.0000000000000000e+00 0.0000000000000000e+00 0.0000000000000000e+00
9.0999999999999996e+00 0.0000000000000000e+00 0.0000000000000000e+00
9.2000000000000011e+00 0.0000000000000000e+00 0.0000000000000000e+00
9.3000000000000007e+00 0.0000000000000000e+00 0.0000000000000000e+00
9.4000000000000004e+00 0.0000000000000000e+00 0.0000000000000000e+00
9.5000000000000000e+00 0.0000000000000000e+00 0.0000000000000000e+00
9.6000000000000014e+00 0.0000000000000000e+00 0.0000000000000000e+00
9.7000000000000011e+00 0.0000000000000000e+00 0.0000000000000000e+00
9.8000000000000007e+00 0.0000000000000000e+00 0.0000000000000000e+00
9.9000000000000004e+00 0.0000000000000000e+00 0.0000000000000000e+00
1.0000000000000000e+01 0.0000000000000000e+00 0.0000000000000000e+00

POINT_DATA 101

VECTORS velocity float
2.8819072354601865e+00 0.0000000000000000e+00 0.0000000000000000e+00
2.8812624410423155e+00 0.0000000000000000e+00 0.0000000000000000e+00
2.8806251120767037e+00 0.0000000000000000e+00 0.0000000000000000e+00
2.8799940335765837e+00 0.0000000000000000e+00 0.0000000000000000e+00
2.8793686363560020e+00 0.0000000000000000e+00 0.0000000000000000e+00
2.8787496652724882e+00 0.0000000000000000e+00 0.0000000000000000e+00
2.8781385929311813e+00 0.0000000000000000e+00 0.0000000000000000e+00
2.8775357807141480e+00 0.0000000000000000e+00 0.0000000000000000e+00
2.8769388966269784e+00 0.0000000000000000e+00 0.0000000000000000e+00
2.8763459240884246e+00 0.0000000000000000e+00 0.0000000000000000e+00
2.8757577463483690e+00 0.0000000000000000e+00 0.0000000000000000e+00
2.8751753430925331e+00 0.0000000000000000e+00 0.0000000000000000e+00
2.8745993849094802e+00 0.0000000000000000e+00 0.0000000000000000e+00
2.8740311570318142e+00 0.0000000000000000e+00 0.0000000000000000e+00
2.8734709270308265e+00 0.0000000000000000e+00 0.0000000000000000e+00
2.8729182155740585e+00 0.0000000000000000e+00 0.0000000000000000e+00
2.8723712581504577e+00 0.0000000000000000e+00 0.0000000000000000e+00
2.8718285200881462e+00 0.0000000000000000e+00 0.0000000000000000e+00
2.8712911850046039e+00 0.0000000000000000e+00 0.0000000000000000e+00
2.8707601148816644e+00 0.0000000000000000e+00 0.0000000000000000e+00
2.8702353243932293e+00 0.0000000000000000e+00 0.0000000000000000e+00
2.8697171154688643e+00 0.0000000000000000e+00 0.0000000000000000e+00
2.8692059807970907e+00 0.0000000000000000e+00 0.0000000000000000e+00
2.8687022667036679e+00 0.0000000000000000e+00 0.0000000000000000e+00
2.8682056947200745e+00 0.0000000000000000e+00 0.0000000000000000e+00
2.8677149708085627e+00 0.0000000000000000e+00 0.0000000000000000e+00
2.8672301633888404e+00 0.0000000000000000e+00 0.0000000000000000e+00
2.8667516028875437e+00 0.0000000000000000e+00 0.0000000000000000e+00
2.8662795125022660e+00 0.0000000000000000e+00 0.0000000000000000e+00
2.8658135981480637e+00 0.0000000000000000e+00 0.0000000000000000e+00
2.8653536123613872e+00 0.0000000000000000e+00 0.0000000000000000e+00
2.8648998238844356e+00 0.0000000000000000e+00 0.0000000000000000e+00
2.8644526427080570e+00 0.0000000000000000e+00 0.0000000000000000e+00
2.8640124915975109e+00 0.0000000000000000e+00 0.0000000000000000e+00
2.8635792192462852e+00 0.0000000000000000e+00 0.0000000000000000e+00
2.8631525891758103e+00 0.0000000000000000e+00 0.0000000000000000e+00
2.8627325281735132e+00 0.0000000000000000e+00 0.0000000000000000e+00
2.8623189773282496e+00 0.0000000000000000e+00 0.0000000000000000e+00
2.8619120142805632e+00 0.0000000000000000e+00 0.0000000000000000e+00
2.8615114010416485e+00 0.0000000000000000e+00 0.0000000000000000e+00
2.8611169212452694e+00 0.0000000000000000e+00 0.0000000000000000e+00
2.8607288276902358e+00 0.0000000000000000e+00 0.0000000000000000e+00
2.8603472419311329e+00 0.0000000000000000e+00 0.0000000000000000e+00
2.8599722085010928e+00 0.0000000000000000e+00 0.0000000000000000e+00
2.8596037463182031e+00 0.0000000000000000e+00 0.0000000000000000e+00
2.8592418657128986e+00 0.0000000000000000e+00 0.0000000000000000e+00
2.8588865741631375e+00 0.0000000000000000e+00 0.0000000000000000e+00
2.8585378779697588e+00 0.0000000000000000e+00 0.0000000000000000e+00
2.8581957834380574e+00 0.0000000000000000e+00 0.0000000000000000e+00
2.8578602967397866e+00 0.0000000000000000e+00 0.0000000000000000e+00
2.8575314234647320e+00 0.0000000000000000e+00 0.0000000000000000e+00
2.8572091695158583e+00 0.0000000000000000e+00 0.0000000000000000e+00
2.8568935405083580e+00 0.0000000000000000e+00 0.0000000000000000e+00
2.8565845417761970e+00 0.0000000000000000e+00 0.0000000000000000e+00
2.8562821788272594e+00 0.0000000000000000e+00 0.0000000000000000e+00
2.8559864571613685e+00 0.0000000000000000e+00 0.0000000000000000e+00
2.8556973817266926e+00 0.0000000000000000e+00 0.0000000000000000e+00
2.8554149575436134e+00 0.0000000000000000e+00 0.0000000000000000e+00
2.8551391900084098e+00 0.0000000000000000e+00 0.0000000000000000e+00
2.8548700840456531e+00 0.0000000000000000e+00 0.0000000000000000e+00
2.8546076443136927e+00 0.0000000000000000e+00 0.0000000000000000e+00
2.8543518756014219e+00 0.0000000000000000e+00 0.0000000000000000e+00
2.8541027825905454e+00 0.0000000000000000e+00 0.0000000000000000e+00
2.8538603696039275e+00 0.0000000000000000e+00 0.0000000000000000e+00
2.8536246409880333e+00 0.0000000000000000e+00 0.0000000000000000e+00
2.8533956010639421e+00 0.0000000000000000e+00 0.0000000000000000e+00
2.8531732539851093e+00 0.0000000000000000e+00 0.0000000000000000e+00
2.8529576038939739e+00 0.0000000000000000e+00 0.0000000000000000e+00
2.8527486548125602e+00 0.0000000000000000e+00 0.0000000000000000e+00
2.8525464105831402e+00 0.0000000000000000e+00 0.0000000000000000e+00
2.8523508749504352e+00 0.0000000000000000e+00 0.0000000000000000e+00
2.8521620515938166e+00 0.0000000000000000e+00 0.0000000000000000e+00
2.8519799440768874e+00 0.0000000000000000e+00 0.0000000000000000e+00
2.8518045558606526e+00 0.0000000000000000e+00 0.0000000000000000e+00
2.8516358903115839e+00 0.0000000000000000e+00 0.0000000000000000e+00
2.8514739505964379e+00 0.0000000000000000e+00 0.0000000000000000e+00
2.8513187399538591e+00 0.0000000000000000e+00 0.0000000000000000e+00
2.8511702612839711e+00 0.0000000000000000e+00 0.0000000000000000e+00
2.8510285176111076e+00 0.0000000000000000e+00 0.0000000000000000e+00
2.8508935119283523e+00 0.0000000000000000e+00 0.0000000000000000e+00
2.8507652468274958e+00 0.0000000000000000e+00 0.0000000000000000e+00
2.8506437248706984e+00 0.0000000000000000e+00 0.0000000000000000e+00
2.8505289485137935e+00 0.0000000000000000e+00 0.0000000000000000e+00
2.8504209204513216e+00 0.0000000000000000e+00 0.0000000000000000e+00
2.8503196428232651e+00 0.0000000000000000e+00 0.0000000000000000e+00
2.8502251175390323e+00 0.0000000000000000e+00 0.0000000000000000e+00
2.8501373466869313e+00 0.0000000000000000e+00 0.0000000000000000e+00
2.8500563324395509e+00 0.0000000000000000e+00 0.0000000000000000e+00
2.8499820766446677e+00 0.0000000000000000e+00 0.0000000000000000e+00
2.8499145816000011e+00 0.0000000000000000e+00 0.0000000000000000e+00
2.8498538480427786e+00 0.0000000000000000e+00 0.0000000000000000e+00
2.8497998809426663e+00 0.0000000000000000e+00 0.0000000000000000e+00
2.8497526725858968e+00 0.0000000000000000e+00 0.0000000000000000e+00
2.8497122462943412e+00 0.0000000000000000e+00 0.0000000000000000e+00
2.8496785511346956e+00 0.0000000000000000e+00 0.0000000000000000e+00
2.8496517124488490e+00 0.0000000000000000e+00 0.0000000000000000e+00
2.8496314333377972e+00 0.0000000000000000e+00 0.0000000000000000e+00
2.8496184276355114e+00 0.0000000000000000e+00 0.0000000000000000e+00
2.8496109944655443e+00 0.0000000000000000e+00 0.0000000000000000e+00
2.8496131864978556e+00 0.0000000000000000e+00 0.0000000000000000e+00
2.8496153785301663e+00 0.0000000000000000e+00 0.0000000000000000e+00


SCALARS pressure float
LOOKUP_TABLE default
6.0833307486800328e+00
6.0222550441031020e+00
5.9611793395261703e+00
5.9001114183227896e+00
5.8390626912537558e+00
5.7780366602299607e+00
5.7170314209734823e+00
5.6560430048486365e+00
5.5950703505258206e+00
5.5341200372692407e+00
5.4731970389127529e+00
5.4122974478901344e+00
5.3514179686780556e+00
5.2905562887636375e+00
5.2297081766814602e+00
5.1688728205949364e+00
5.1080512344144688e+00
5.0472483242700905e+00
4.9864680889009962e+00
4.9257061001721958e+00
4.8649596893296003e+00
4.8042285477127162e+00
4.7435110261506077e+00
4.6828046806555594e+00
4.6221074604628276e+00
4.5614202243458681e+00
4.5007472039360827e+00
4.4400870344161296e+00
4.3794381133406182e+00
4.3187992468195402e+00
4.2581708657725903e+00
4.1975530728974491e+00
4.1369443751392065e+00
4.0763429658461101e+00
4.0157470589824076e+00
3.9551566888122784e+00
3.8945719920285913e+00
3.8339925851046353e+00
3.7734180954419902e+00
3.7128477109977629e+00
3.6522816695142906e+00
3.5917199633617076e+00
3.5311611249897616e+00
3.4706042339751204e+00
3.4100485512115961e+00
3.3494933956730533e+00
3.2889381042322317e+00
3.2283820182441598e+00
3.1678244799177881e+00
3.1072648289299631e+00
3.0467024032128225e+00
2.9861365404533102e+00
2.9255665750675348e+00
2.8649918405332171e+00
2.8044116692582555e+00
2.7438253910857369e+00
2.6832323339694191e+00
2.6226318256440542e+00
2.5620231916737319e+00
2.5014057547151443e+00
2.4407788372571715e+00
2.3801417607668651e+00
2.3194938445373978e+00
2.2588344065426891e+00
2.1981627641957333e+00
2.1374782331220201e+00
2.0767801274820106e+00
2.0160677604183870e+00
1.9553404435630535e+00
1.8945974874742098e+00
1.8338382018213955e+00
1.7730618951289348e+00
1.7122678747287614e+00
1.6514554469485210e+00
1.5906239171058620e+00
1.5297725895545384e+00
1.4689007679753692e+00
1.4080077546464500e+00
1.3470928517136953e+00
1.2861553597725606e+00
1.2251945785328422e+00
1.1642098076974008e+00
1.1032003459600552e+00
1.0421654913394514e+00
9.8110454033341454e-01
9.2001679013316628e-01
8.5890153745566789e-01
7.9775807750924421e-01
7.3658570454011008e-01
6.7538371322665169e-01
6.1415139584037137e-01
5.5288804956641091e-01
4.9159295558634081e-01
4.3026543838389819e-01
3.6890471408668690e-01
3.0751025592142156e-01
2.4608092704486473e-01
1.8461704271552440e-01
1.2311545722093786e-01
6.1581251920937524e-02
0.0000000000000000e+00


SCALARS diameter float
LOOKUP_TABLE default
1.0005515679837740e+00
1.0005453339970984e+00
1.0005389488864416e+00
1.0005335835684428e+00
1.0005286429661941e+00
1.0005236893859240e+00
1.0005178715737930e+00
1.0005110037440224e+00
1.0005042923753369e+00
1.0004990551230686e+00
1.0004942546544895e+00
1.0004894441370384e+00
1.0004845763199182e+00
1.0004791264040565e+00
1.0004728400871141e+00
1.0004663552495365e+00
1.0004600207941066e+00
1.0004550747394629e+00
1.0004502287971675e+00
1.0004451752657542e+00
1.0004400720385445e+00
1.0004349089256810e+00
1.0004293509211748e+00
1.0004234856315561e+00
1.0004173932094520e+00
1.0004117036101832e+00
1.0004062157903053e+00
1.0004006863055535e+00
1.0003951556419759e+00
1.0003896535051147e+00
1.0003845063108598e+00
1.0003793486594990e+00
1.0003741565898674e+00
1.0003686371015996e+00
1.0003629907594016e+00
1.0003573412953275e+00
1.0003516881220034e+00
1.0003460311710626e+00
1.0003403703206752e+00
1.0003347230574573e+00
1.0003293415063366e+00
1.0003239528879830e+00
1.0003185582675382e+00
1.0003131582752531e+00
1.0003077531568767e+00
1.0003023431188416e+00
1.0002969283321825e+00
1.0002915089896927e+00
1.0002860852204030e+00
1.0002806568217768e+00
1.0002752242401851e+00
1.0002697873818089e+00
1.0002643463445384e+00
1.0002589013889716e+00
1.0002534525038831e+00
1.0002479996808749e+00
1.0002425431206834e+00
1.0002370831000000e+00
1.0002316193565091e+00
1.0002261520431426e+00
1.0002206813612866e+00
1.0002152073347961e+00
1.0002097299611588e+00
1.0002042494528789e+00
1.0001987659245151e+00
1.0001932793888835e+00
1.0001877899853853e+00
1.0001822977561932e+00
1.0001768027612348e+00
1.0001713051114904e+00
1.0001658049038467e+00
1.0001603022022896e+00
1.0001547970939650e+00
1.0001492896595785e+00
1.0001437799837476e+00
1.0001382681572313e+00
1.0001327542786500e+00
1.0001272383682303e+00
1.0001217206422246e+00
1.0001162009019129e+00
1.0001106794120058e+00
1.0001051562560346e+00
1.0000996315136332e+00
1.0000941052007939e+00
1.0000885772808423e+00
1.0000830482094063e+00
1.0000775178942609e+00
1.0000719864291068e+00
1.0000664538772592e+00
1.0000609202019870e+00
1.0000553855271292e+00
1.0000498494675942e+00
1.0000443130733081e+00
1.0000387754495885e+00
1.0000332373680474e+00
1.0000276987319401e+00
1.0000221596090952e+00
1.0000166200777107e+00
1.0000110802216848e+00
1.0000055401976446e+00
1.0000000000151121e+00


SCALARS iters float
LOOKUP_TABLE default
3.0000000000000000e+00
3.0000000000000000e+00
3.0000000000000000e+00
3.0000000000000000e+00
3.0000000000000000e+00
3.0000000000000000e+00
3.0000000000000000e+00
3.0000000000000000e+00
3.0000000000000000e+00
3.0000000000000000e+00
3.0000000000000000e+00
3.0000000000000000e+00
3.0000000000000000e+00
3.0000000000000000e+00
3.0000000000000000e+00
3.0000000000000000e+00
3.0000000000000000e+00
3.0000000000000000e+00
3.0000000000000000e+00
3.0000000000000000e+00
3.0000000000000000e+00
3.0000000000000000e+00
3.0000000000000000e+00
3.0000000000000000e+00
3.0000000000000000e+00
3.0000000000000000e+00
3.0000000000000000e+00
3.0000000000000000e+00
3.0000000000000000e+00
3.0000000000000000e+00
3.0000000000000000e+00
3.0000000000000000e+00
3.0000000000000000e+00
3.0000000000000000e+00
3.0000000000000000e+00
3.0000000000000000e+00
3.0000000000000000e+00
3.0000000000000000e+00
3.0000000000000000e+00
3.0000000000000000e+00
3.0000000000000000e+00
3.0000000000000000e+00
3.0000000000000000e+00
3.0000000000000000e+00
3.0000000000000000e+00
3.0000000000000000e+00
3.0000000000000000e+00
3.0000000000000000e+00
3.0000000000000000e+00
3.0000000000000000e+00
3.0000000000000000e+00
3.0000000000000000e+00
3.0000000000000000e+00
3.0000000000000000e+00
3.0000000000000000e+00
3.0000000000000000e+00
3.0000000000000000e+00
3.0000000000000000e+00
3.0000000000000000e+00
3.0000000000000000e+00
3.0000000000000000e+00
3.0000000000000000e+00
3.0000000000000000e+00
3.0000000000000000e+00
3.0000000000000000e+00
3.0000000000000000e+00
3.0000000000000000e+00
3.0000000000000000e+00
3.0000000000000000e+00
3.0000000000000000e+00
3.0000000000000000e+00
3.0000000000000000e+00
3.0000000000000000e+00
3.0000000000000000e+00
3.0000000000000000e+00
3.0000000000000000e+00
3.0000000000000000e+00
3.0000000000000000e+00
3.0000000000000000e+00
3.0000000000000000e+00
3.0000000000000000e+00
3.0000000000000000e+00
3.0000000000000000e+00
3.0000000000000000e+00
3.0000000000000000e+00
3.0000000000000000e+00
3.0000000000000000e+00
3.0000000000000000e+00
3.0000000000000000e+00
3.0000000000000000e+00
3.0000000000000000e+00
3.0000000000000000e+00
3.0000000000000000e+00
3.0000000000000000e+00
3.0000000000000000e+00
3.0000000000000000e+00
3.0000000000000000e+00
3.0000000000000000e+00
3.0000000000000000e+00
3.0000000000000000e+00
3.0000000000000000e+00


