# vtk DataFile Version 2.0

ASCII

DATASET UNSTRUCTURED_GRID

POINTS 101 float

0.0000000000000000e+00 0.0000000000000000e+00 0.0000000000000000e+00
1.0000000000000001e-01 0.0000000000000000e+00 0.0000000000000000e+00
2.0000000000000001e-01 0.0000000000000000e+00 0.0000000000000000e+00
3.0000000000000004e-01 0.0000000000000000e+00 0.0000000000000000e+00
4.0000000000000002e-01 0.0000000000000000e+00 0.0000000000000000e+00
5.0000000000000000e-01 0.0000000000000000e+00 0.0000000000000000e+00
6.0000000000000009e-01 0.0000000000000000e+00 0.0000000000000000e+00
7.0000000000000007e-01 0.0000000000000000e+00 0.0000000000000000e+00
8.0000000000000004e-01 0.0000000000000000e+00 0.0000000000000000e+00
9.0000000000000002e-01 0.0000000000000000e+00 0.0000000000000000e+00
1.0000000000000000e+00 0.0000000000000000e+00 0.0000000000000000e+00
1.1000000000000001e+00 0.0000000000000000e+00 0.0000000000000000e+00
1.2000000000000002e+00 0.0000000000000000e+00 0.0000000000000000e+00
1.3000000000000000e+00 0.0000000000000000e+00 0.0000000000000000e+00
1.4000000000000001e+00 0.0000000000000000e+00 0.0000000000000000e+00
1.5000000000000000e+00 0.0000000000000000e+00 0.0000000000000000e+00
1.6000000000000001e+00 0.0000000000000000e+00 0.0000000000000000e+00
1.7000000000000002e+00 0.0000000000000000e+00 0.0000000000000000e+00
1.8000000000000000e+00 0.0000000000000000e+00 0.0000000000000000e+00
1.9000000000000001e+00 0.0000000000000000e+00 0.0000000000000000e+00
2.0000000000000000e+00 0.0000000000000000e+00 0.0000000000000000e+00
2.1000000000000001e+00 0.0000000000000000e+00 0.0000000000000000e+00
2.2000000000000002e+00 0.0000000000000000e+00 0.0000000000000000e+00
2.3000000000000003e+00 0.0000000000000000e+00 0.0000000000000000e+00
2.4000000000000004e+00 0.0000000000000000e+00 0.0000000000000000e+00
2.5000000000000000e+00 0.0000000000000000e+00 0.0000000000000000e+00
2.6000000000000001e+00 0.0000000000000000e+00 0.0000000000000000e+00
2.7000000000000002e+00 0.0000000000000000e+00 0.0000000000000000e+00
2.8000000000000003e+00 0.0000000000000000e+00 0.0000000000000000e+00
2.9000000000000004e+00 0.0000000000000000e+00 0.0000000000000000e+00
3.0000000000000000e+00 0.0000000000000000e+00 0.0000000000000000e+00
3.1000000000000001e+00 0.0000000000000000e+00 0.0000000000000000e+00
3.2000000000000002e+00 0.0000000000000000e+00 0.0000000000000000e+00
3.3000000000000003e+00 0.0000000000000000e+00 0.0000000000000000e+00
3.4000000000000004e+00 0.0000000000000000e+00 0.0000000000000000e+00
3.5000000000000000e+00 0.0000000000000000e+00 0.0000000000000000e+00
3.6000000000000001e+00 0.0000000000000000e+00 0.0000000000000000e+00
3.7000000000000002e+00 0.0000000000000000e+00 0.0000000000000000e+00
3.8000000000000003e+00 0.0000000000000000e+00 0.0000000000000000e+00
3.9000000000000004e+00 0.0000000000000000e+00 0.0000000000000000e+00
4.0000000000000000e+00 0.0000000000000000e+00 0.0000000000000000e+00
4.1000000000000005e+00 0.0000000000000000e+00 0.0000000000000000e+00
4.2000000000000002e+00 0.0000000000000000e+00 0.0000000000000000e+00
4.2999999999999998e+00 0.0000000000000000e+00 0.0000000000000000e+00
4.4000000000000004e+00 0.0000000000000000e+00 0.0000000000000000e+00
4.5000000000000000e+00 0.0000000000000000e+00 0.0000000000000000e+00
4.6000000000000005e+00 0.0000000000000000e+00 0.0000000000000000e+00
4.7000000000000002e+00 0.0000000000000000e+00 0.0000000000000000e+00
4.8000000000000007e+00 0.0000000000000000e+00 0.0000000000000000e+00
4.9000000000000004e+00 0.0000000000000000e+00 0.0000000000000000e+00
5.0000000000000000e+00 0.0000000000000000e+00 0.0000000000000000e+00
5.1000000000000005e+00 0.0000000000000000e+00 0.0000000000000000e+00
5.2000000000000002e+00 0.0000000000000000e+00 0.0000000000000000e+00
5.3000000000000007e+00 0.0000000000000000e+00 0.0000000000000000e+00
5.4000000000000004e+00 0.0000000000000000e+00 0.0000000000000000e+00
5.5000000000000000e+00 0.0000000000000000e+00 0.0000000000000000e+00
5.6000000000000005e+00 0.0000000000000000e+00 0.0000000000000000e+00
5.7000000000000002e+00 0.0000000000000000e+00 0.0000000000000000e+00
5.8000000000000007e+00 0.0000000000000000e+00 0.0000000000000000e+00
5.9000000000000004e+00 0.0000000000000000e+00 0.0000000000000000e+00
6.0000000000000000e+00 0.0000000000000000e+00 0.0000000000000000e+00
6.1000000000000005e+00 0.0000000000000000e+00 0.0000000000000000e+00
6.2000000000000002e+00 0.0000000000000000e+00 0.0000000000000000e+00
6.3000000000000007e+00 0.0000000000000000e+00 0.0000000000000000e+00
6.4000000000000004e+00 0.0000000000000000e+00 0.0000000000000000e+00
6.5000000000000000e+00 0.0000000000000000e+00 0.0000000000000000e+00
6.6000000000000005e+00 0.0000000000000000e+00 0.0000000000000000e+00
6.7000000000000002e+00 0.0000000000000000e+00 0.0000000000000000e+00
6.8000000000000007e+00 0.0000000000000000e+00 0.0000000000000000e+00
6.9000000000000004e+00 0.0000000000000000e+00 0.0000000000000000e+00
7.0000000000000000e+00 0.0000000000000000e+00 0.0000000000000000e+00
7.1000000000000005e+00 0.0000000000000000e+00 0.0000000000000000e+00
7.2000000000000002e+00 0.0000000000000000e+00 0.0000000000000000e+00
7.3000000000000007e+00 0.0000000000000000e+00 0.0000000000000000e+00
7.4000000000000004e+00 0.0000000000000000e+00 0.0000000000000000e+00
7.5000000000000000e+00 0.0000000000000000e+00 0.0000000000000000e+00
7.6000000000000005e+00 0.0000000000000000e+00 0.0000000000000000e+00
7.7000000000000002e+00 0.0000000000000000e+00 0.0000000000000000e+00
7.8000000000000007e+00 0.0000000000000000e+00 0.0000000000000000e+00
7.9000000000000004e+00 0.0000000000000000e+00 0.0000000000000000e+00
8.0000000000000000e+00 0.0000000000000000e+00 0.0000000000000000e+00
8.0999999999999996e+00 0.0000000000000000e+00 0.0000000000000000e+00
8.2000000000000011e+00 0.0000000000000000e+00 0.0000000000000000e+00
8.3000000000000007e+00 0.0000000000000000e+00 0.0000000000000000e+00
8.4000000000000004e+00 0.0000000000000000e+00 0.0000000000000000e+00
8.5000000000000000e+00 0.0000000000000000e+00 0.0000000000000000e+00
8.5999999999999996e+00 0.0000000000000000e+00 0.0000000000000000e+00
8.7000000000000011e+00 0.0000000000000000e+00 0.0000000000000000e+00
8.8000000000000007e+00 0.0000000000000000e+00 0.0000000000000000e+00
8.9000000000000004e+00 0.0000000000000000e+00 0.0000000000000000e+00
9.0000000000000000e+00 0.0000000000000000e+00 0.0000000000000000e+00
9.0999999999999996e+00 0.0000000000000000e+00 0.0000000000000000e+00
9.2000000000000011e+00 0.0000000000000000e+00 0.0000000000000000e+00
9.3000000000000007e+00 0.0000000000000000e+00 0.0000000000000000e+00
9.4000000000000004e+00 0.0000000000000000e+00 0.0000000000000000e+00
9.5000000000000000e+00 0.0000000000000000e+00 0.0000000000000000e+00
9.6000000000000014e+00 0.0000000000000000e+00 0.0000000000000000e+00
9.7000000000000011e+00 0.0000000000000000e+00 0.0000000000000000e+00
9.8000000000000007e+00 0.0000000000000000e+00 0.0000000000000000e+00
9.9000000000000004e+00 0.0000000000000000e+00 0.0000000000000000e+00
1.0000000000000000e+01 0.0000000000000000e+00 0.0000000000000000e+00

POINT_DATA 101

VECTORS velocity float
4.7175536081817073e+00 0.0000000000000000e+00 0.0000000000000000e+00
4.7173515221060756e+00 0.0000000000000000e+00 0.0000000000000000e+00
4.7171469541383262e+00 0.0000000000000000e+00 0.0000000000000000e+00
4.7169399707551820e+00 0.0000000000000000e+00 0.0000000000000000e+00
4.7167321730411533e+00 0.0000000000000000e+00 0.0000000000000000e+00
4.7165258088414710e+00 0.0000000000000000e+00 0.0000000000000000e+00
4.7163237346007776e+00 0.0000000000000000e+00 0.0000000000000000e+00
4.7161270208662467e+00 0.0000000000000000e+00 0.0000000000000000e+00
4.7159322723074624e+00 0.0000000000000000e+00 0.0000000000000000e+00
4.7157367786774911e+00 0.0000000000000000e+00 0.0000000000000000e+00
4.7155417742585319e+00 0.0000000000000000e+00 0.0000000000000000e+00
4.7153482519594565e+00 0.0000000000000000e+00 0.0000000000000000e+00
4.7151570992238403e+00 0.0000000000000000e+00 0.0000000000000000e+00
4.7149703766076145e+00 0.0000000000000000e+00 0.0000000000000000e+00
4.7147884362339907e+00 0.0000000000000000e+00 0.0000000000000000e+00
4.7146107034807399e+00 0.0000000000000000e+00 0.0000000000000000e+00
4.7144344479607998e+00 0.0000000000000000e+00 0.0000000000000000e+00
4.7142575068424026e+00 0.0000000000000000e+00 0.0000000000000000e+00
4.7140817662227983e+00 0.0000000000000000e+00 0.0000000000000000e+00
4.7139082765569027e+00 0.0000000000000000e+00 0.0000000000000000e+00
4.7137370627174437e+00 0.0000000000000000e+00 0.0000000000000000e+00
4.7135686772273511e+00 0.0000000000000000e+00 0.0000000000000000e+00
4.7134038501447915e+00 0.0000000000000000e+00 0.0000000000000000e+00
4.7132429485507110e+00 0.0000000000000000e+00 0.0000000000000000e+00
4.7130850680291783e+00 0.0000000000000000e+00 0.0000000000000000e+00
4.7129288870173545e+00 0.0000000000000000e+00 0.0000000000000000e+00
4.7127746939446427e+00 0.0000000000000000e+00 0.0000000000000000e+00
4.7126227603046944e+00 0.0000000000000000e+00 0.0000000000000000e+00
4.7124732987349285e+00 0.0000000000000000e+00 0.0000000000000000e+00
4.7123257842153015e+00 0.0000000000000000e+00 0.0000000000000000e+00
4.7121798780061814e+00 0.0000000000000000e+00 0.0000000000000000e+00
4.7120360085020545e+00 0.0000000000000000e+00 0.0000000000000000e+00
4.7118947196102807e+00 0.0000000000000000e+00 0.0000000000000000e+00
4.7117566011059209e+00 0.0000000000000000e+00 0.0000000000000000e+00
4.7116214266263343e+00 0.0000000000000000e+00 0.0000000000000000e+00
4.7114889217520650e+00 0.0000000000000000e+00 0.0000000000000000e+00
4.7113589974786327e+00 0.0000000000000000e+00 0.0000000000000000e+00
4.7112315671108211e+00 0.0000000000000000e+00 0.0000000000000000e+00
4.7111066931306667e+00 0.0000000000000000e+00 0.0000000000000000e+00
4.7109840806473491e+00 0.0000000000000000e+00 0.0000000000000000e+00
4.7108635013993156e+00 0.0000000000000000e+00 0.0000000000000000e+00
4.7107452253396156e+00 0.0000000000000000e+00 0.0000000000000000e+00
4.7106293348544073e+00 0.0000000000000000e+00 0.0000000000000000e+00
4.7105158718650113e+00 0.0000000000000000e+00 0.0000000000000000e+00
4.7104048581517901e+00 0.0000000000000000e+00 0.0000000000000000e+00
4.7102963051134434e+00 0.0000000000000000e+00 0.0000000000000000e+00
4.7101902189288394e+00 0.0000000000000000e+00 0.0000000000000000e+00
4.7100866027789641e+00 0.0000000000000000e+00 0.0000000000000000e+00
4.7099854592318762e+00 0.0000000000000000e+00 0.0000000000000000e+00
4.7098867900714012e+00 0.0000000000000000e+00 0.0000000000000000e+00
4.7097905960912669e+00 0.0000000000000000e+00 0.0000000000000000e+00
4.7096968786380842e+00 0.0000000000000000e+00 0.0000000000000000e+00
4.7096056384764609e+00 0.0000000000000000e+00 0.0000000000000000e+00
4.7095168761375588e+00 0.0000000000000000e+00 0.0000000000000000e+00
4.7094305926012936e+00 0.0000000000000000e+00 0.0000000000000000e+00
4.7093467889075287e+00 0.0000000000000000e+00 0.0000000000000000e+00
4.7092654653438366e+00 0.0000000000000000e+00 0.0000000000000000e+00
4.7091866225158192e+00 0.0000000000000000e+00 0.0000000000000000e+00
4.7091102616731684e+00 0.0000000000000000e+00 0.0000000000000000e+00
4.7090363834307407e+00 0.0000000000000000e+00 0.0000000000000000e+00
4.7089649882339026e+00 0.0000000000000000e+00 0.0000000000000000e+00
4.7088960768946393e+00 0.0000000000000000e+00 0.0000000000000000e+00
4.7088296501383047e+00 0.0000000000000000e+00 0.0000000000000000e+00
4.7087657082881016e+00 0.0000000000000000e+00 0.0000000000000000e+00
4.7087042518732005e+00 0.0000000000000000e+00 0.0000000000000000e+00
4.7086452814671151e+00 0.0000000000000000e+00 0.0000000000000000e+00
4.7085887975269491e+00 0.0000000000000000e+00 0.0000000000000000e+00
4.7085348006366834e+00 0.0000000000000000e+00 0.0000000000000000e+00
4.7084832913193422e+00 0.0000000000000000e+00 0.0000000000000000e+00
4.7084342699703292e+00 0.0000000000000000e+00 0.0000000000000000e+00
4.7083877369983025e+00 0.0000000000000000e+00 0.0000000000000000e+00
4.7083436928288336e+00 0.0000000000000000e+00 0.0000000000000000e+00
4.7083021378512315e+00 0.0000000000000000e+00 0.0000000000000000e+00
4.7082630724132741e+00 0.0000000000000000e+00 0.0000000000000000e+00
4.7082264968624719e+00 0.0000000000000000e+00 0.0000000000000000e+00
4.7081924114083415e+00 0.0000000000000000e+00 0.0000000000000000e+00
4.7081608164449849e+00 0.0000000000000000e+00 0.0000000000000000e+00
4.7081317120864439e+00 0.0000000000000000e+00 0.0000000000000000e+00
4.7081050986558459e+00 0.0000000000000000e+00 0.0000000000000000e+00
4.7080809766816998e+00 0.0000000000000000e+00 0.0000000000000000e+00
4.7080593461684410e+00 0.0000000000000000e+00 0.0000000000000000e+00
4.7080402072450891e+00 0.0000000000000000e+00 0.0000000000000000e+00
4.7080235599698712e+00 0.0000000000000000e+00 0.0000000000000000e+00
4.7080094048265426e+00 0.0000000000000000e+00 0.0000000000000000e+00
4.7079977417849639e+00 0.0000000000000000e+00 0.0000000000000000e+00
4.7079885704660596e+00 0.0000000000000000e+00 0.0000000000000000e+00
4.7079818910795206e+00 0.0000000000000000e+00 0.0000000000000000e+00
4.7079777035857777e+00 0.0000000000000000e+00 0.0000000000000000e+00
4.7079760081650219e+00 0.0000000000000000e+00 0.0000000000000000e+00
4.7079768047320263e+00 0.0000000000000000e+00 0.0000000000000000e+00
4.7079800938919174e+00 0.0000000000000000e+00 0.0000000000000000e+00
4.7079858761808753e+00 0.0000000000000000e+00 0.0000000000000000e+00
4.7079941488423422e+00 0.0000000000000000e+00 0.0000000000000000e+00
4.7080049179809835e+00 0.0000000000000000e+00 0.0000000000000000e+00
4.7080181687033322e+00 0.0000000000000000e+00 0.0000000000000000e+00
4.7080339359307217e+00 0.0000000000000000e+00 0.0000000000000000e+00
4.7080521314952213e+00 0.0000000000000000e+00 0.0000000000000000e+00
4.7080729761016933e+00 0.0000000000000000e+00 0.0000000000000000e+00
4.7080959150645381e+00 0.0000000000000000e+00 0.0000000000000000e+00
4.7081223381319717e+00 0.0000000000000000e+00 0.0000000000000000e+00
4.7081487611994044e+00 0.0000000000000000e+00 0.0000000000000000e+00


SCALARS pressure float
LOOKUP_TABLE default
7.6085527638848145e+00
7.5339471083089844e+00
7.4593414527331543e+00
7.3847204945650144e+00
7.3100838942028279e+00
7.2354265719521011e+00
7.1607396070409157e+00
7.0860108511892186e+00
7.0112346098839327e+00
6.9364238158264211e+00
6.8615912591544088e+00
6.7867339486950327e+00
6.7118475909111224e+00
6.6369280939825108e+00
6.5619666237952812e+00
6.4869605371116066e+00
6.4119118041222203e+00
6.3368318929096850e+00
6.2617314133414030e+00
6.1866044782107057e+00
6.1114460513483095e+00
6.0362553574791749e+00
5.9610301573512929e+00
5.8857672294534824e+00
5.8104646347217050e+00
5.7351258266071916e+00
5.6597567706280394e+00
5.5843573183839119e+00
5.5089264731735632e+00
5.4334633351915622e+00
5.3579699991294811e+00
5.2824482376631980e+00
5.2068966994399357e+00
5.1313130805575469e+00
5.0556947373059078e+00
4.9800422562026911e+00
4.9043569042992035e+00
4.8286393090272002e+00
4.7528899977412848e+00
4.6771088818538482e+00
4.6012972340475526e+00
4.5254562714650808e+00
4.4495851982091725e+00
4.3736836703336399e+00
4.2977515718703447e+00
4.2217889005978044e+00
4.1457957123075202e+00
4.0697720920625011e+00
3.9937181412335074e+00
3.9176339660235495e+00
3.8415196765104507e+00
3.7653753873606162e+00
3.6892012117194701e+00
3.6129972649437834e+00
3.5367636637632445e+00
3.4605005233818802e+00
3.3842079586026776e+00
3.3078860872407629e+00
3.2315350263489435e+00
3.1551548903933897e+00
3.0787457960954780e+00
3.0023078612821901e+00
2.9258412025398641e+00
2.8493459366913876e+00
2.7728221822834525e+00
2.6962700573633414e+00
2.6196896798088232e+00
2.5430811680150680e+00
2.4664446400224560e+00
2.3897802141468745e+00
2.3130880093395740e+00
2.2363681446673849e+00
2.1596207392202156e+00
2.0828459123072149e+00
2.0060437835223892e+00
1.9292144725894567e+00
1.8523580998751898e+00
1.7754747852024144e+00
1.6985646494971245e+00
1.6216278131000053e+00
1.5446643955649655e+00
1.4676745184391136e+00
1.3906583031372097e+00
1.3136158714189279e+00
1.2365473435691952e+00
1.1594528417391010e+00
1.0823324896966244e+00
1.0051864091209455e+00
9.2801472256251127e-01
8.5081755201668074e-01
7.7359502055170892e-01
6.9634724864684128e-01
6.1907435657913312e-01
5.4177647793405415e-01
4.6445371290349841e-01
3.8710624104848051e-01
3.0973405400133863e-01
2.3233760869844136e-01
1.5491619516109711e-01
7.7472029870887887e-02
0.0000000000000000e+00


SCALARS diameter float
LOOKUP_TABLE default
1.0006882410809812e+00
1.0006806158848729e+00
1.0006729992596299e+00
1.0006665164633752e+00
1.0006605219226379e+00
1.0006545085447649e+00
1.0006476689641937e+00
1.0006397652860923e+00
1.0006319251787210e+00
1.0006254845891929e+00
1.0006194553058168e+00
1.0006134107089359e+00
1.0006073008619798e+00
1.0006005657112247e+00
1.0005929818597306e+00
1.0005852016995915e+00
1.0005775555030620e+00
1.0005713234588789e+00
1.0005652004048882e+00
1.0005588711561320e+00
1.0005524863595969e+00
1.0005460375237896e+00
1.0005391692567227e+00
1.0005319505023629e+00
1.0005245200531916e+00
1.0005175362530720e+00
1.0005107037832637e+00
1.0005038266992465e+00
1.0004969474303824e+00
1.0004900964043839e+00
1.0004836086819873e+00
1.0004771090876636e+00
1.0004705778687497e+00
1.0004637371814538e+00
1.0004567726842926e+00
1.0004498041042411e+00
1.0004428307571374e+00
1.0004358525200094e+00
1.0004288692986687e+00
1.0004218938728182e+00
1.0004151075629046e+00
1.0004083130738952e+00
1.0004015114050560e+00
1.0003947032300617e+00
1.0003878888121518e+00
1.0003810683717185e+00
1.0003742421004278e+00
1.0003674102115363e+00
1.0003605728627698e+00
1.0003537298489935e+00
1.0003468816525924e+00
1.0003400281832211e+00
1.0003331695602575e+00
1.0003263060788712e+00
1.0003194377410372e+00
1.0003125645517050e+00
1.0003056867205420e+00
1.0002988045462493e+00
1.0002919177954448e+00
1.0002850266358341e+00
1.0002781312899700e+00
1.0002712318005740e+00
1.0002643281795245e+00
1.0002574206561763e+00
1.0002505093632672e+00
1.0002435943324941e+00
1.0002366757212855e+00
1.0002297535903140e+00
1.0002228280203154e+00
1.0002158991388428e+00
1.0002089670620653e+00
1.0002020318695362e+00
1.0001950936668069e+00
1.0001881525521501e+00
1.0001812086334547e+00
1.0001742620153808e+00
1.0001673128198056e+00
1.0001603610863825e+00
1.0001534070400364e+00
1.0001464505273927e+00
1.0001394917983755e+00
1.0001325309647193e+00
1.0001255681228771e+00
1.0001186033253466e+00
1.0001116365554805e+00
1.0001046682347887e+00
1.0000976983164935e+00
1.0000907268962069e+00
1.0000837541089882e+00
1.0000767799130865e+00
1.0000698044726979e+00
1.0000628273651442e+00
1.0000558496518261e+00
1.0000488705231878e+00
1.0000418907364375e+00
1.0000349102150912e+00
1.0000279290464049e+00
1.0000209473252935e+00
1.0000139651676974e+00
1.0000069827469336e+00
1.0000000000060227e+00


SCALARS iters float
LOOKUP_TABLE default
3.0000000000000000e+00
3.0000000000000000e+00
3.0000000000000000e+00
3.0000000000000000e+00
3.0000000000000000e+00
3.0000000000000000e+00
3.0000000000000000e+00
3.0000000000000000e+00
3.0000000000000000e+00
3.0000000000000000e+00
3.0000000000000000e+00
3.0000000000000000e+00
3.0000000000000000e+00
3.0000000000000000e+00
3.0000000000000000e+00
3.0000000000000000e+00
3.0000000000000000e+00
3.0000000000000000e+00
3.0000000000000000e+00
3.0000000000000000e+00
3.0000000000000000e+00
3.0000000000000000e+00
3.0000000000000000e+00
3.0000000000000000e+00
3.0000000000000000e+00
3.0000000000000000e+00
3.0000000000000000e+00
3.0000000000000000e+00
3.0000000000000000e+00
3.0000000000000000e+00
3.0000000000000000e+00
3.0000000000000000e+00
3.0000000000000000e+00
3.0000000000000000e+00
3.0000000000000000e+00
3.0000000000000000e+00
3.0000000000000000e+00
3.0000000000000000e+00
3.0000000000000000e+00
3.0000000000000000e+00
3.0000000000000000e+00
3.0000000000000000e+00
3.0000000000000000e+00
3.0000000000000000e+00
3.0000000000000000e+00
3.0000000000000000e+00
3.0000000000000000e+00
3.0000000000000000e+00
3.0000000000000000e+00
3.0000000000000000e+00
3.0000000000000000e+00
3.0000000000000000e+00
3.0000000000000000e+00
3.0000000000000000e+00
3.0000000000000000e+00
3.0000000000000000e+00
3.0000000000000000e+00
3.0000000000000000e+00
3.0000000000000000e+00
3.0000000000000000e+00
3.0000000000000000e+00
3.0000000000000000e+00
3.0000000000000000e+00
3.0000000000000000e+00
3.0000000000000000e+00
3.0000000000000000e+00
3.0000000000000000e+00
3.0000000000000000e+00
3.0000000000000000e+00
3.0000000000000000e+00
3.0000000000000000e+00
3.0000000000000000e+00
3.0000000000000000e+00
3.0000000000000000e+00
3.0000000000000000e+00
3.0000000000000000e+00
3.0000000000000000e+00
3.0000000000000000e+00
3.0000000000000000e+00
3.0000000000000000e+00
3.0000000000000000e+00
3.0000000000000000e+00
3.0000000000000000e+00
3.0000000000000000e+00
3.0000000000000000e+00
3.0000000000000000e+00
3.0000000000000000e+00
3.0000000000000000e+00
3.0000000000000000e+00
3.0000000000000000e+00
3.0000000000000000e+00
3.0000000000000000e+00
3.0000000000000000e+00
3.0000000000000000e+00
3.0000000000000000e+00
3.0000000000000000e+00
3.0000000000000000e+00
3.0000000000000000e+00
3.0000000000000000e+00
3.0000000000000000e+00
3.0000000000000000e+00


