# vtk DataFile Version 2.0

ASCII

DATASET UNSTRUCTURED_GRID

POINTS 101 float

0.0000000000000000e+00 0.0000000000000000e+00 0.0000000000000000e+00
1.0000000000000001e-01 0.0000000000000000e+00 0.0000000000000000e+00
2.0000000000000001e-01 0.0000000000000000e+00 0.0000000000000000e+00
3.0000000000000004e-01 0.0000000000000000e+00 0.0000000000000000e+00
4.0000000000000002e-01 0.0000000000000000e+00 0.0000000000000000e+00
5.0000000000000000e-01 0.0000000000000000e+00 0.0000000000000000e+00
6.0000000000000009e-01 0.0000000000000000e+00 0.0000000000000000e+00
7.0000000000000007e-01 0.0000000000000000e+00 0.0000000000000000e+00
8.0000000000000004e-01 0.0000000000000000e+00 0.0000000000000000e+00
9.0000000000000002e-01 0.0000000000000000e+00 0.0000000000000000e+00
1.0000000000000000e+00 0.0000000000000000e+00 0.0000000000000000e+00
1.1000000000000001e+00 0.0000000000000000e+00 0.0000000000000000e+00
1.2000000000000002e+00 0.0000000000000000e+00 0.0000000000000000e+00
1.3000000000000000e+00 0.0000000000000000e+00 0.0000000000000000e+00
1.4000000000000001e+00 0.0000000000000000e+00 0.0000000000000000e+00
1.5000000000000000e+00 0.0000000000000000e+00 0.0000000000000000e+00
1.6000000000000001e+00 0.0000000000000000e+00 0.0000000000000000e+00
1.7000000000000002e+00 0.0000000000000000e+00 0.0000000000000000e+00
1.8000000000000000e+00 0.0000000000000000e+00 0.0000000000000000e+00
1.9000000000000001e+00 0.0000000000000000e+00 0.0000000000000000e+00
2.0000000000000000e+00 0.0000000000000000e+00 0.0000000000000000e+00
2.1000000000000001e+00 0.0000000000000000e+00 0.0000000000000000e+00
2.2000000000000002e+00 0.0000000000000000e+00 0.0000000000000000e+00
2.3000000000000003e+00 0.0000000000000000e+00 0.0000000000000000e+00
2.4000000000000004e+00 0.0000000000000000e+00 0.0000000000000000e+00
2.5000000000000000e+00 0.0000000000000000e+00 0.0000000000000000e+00
2.6000000000000001e+00 0.0000000000000000e+00 0.0000000000000000e+00
2.7000000000000002e+00 0.0000000000000000e+00 0.0000000000000000e+00
2.8000000000000003e+00 0.0000000000000000e+00 0.0000000000000000e+00
2.9000000000000004e+00 0.0000000000000000e+00 0.0000000000000000e+00
3.0000000000000000e+00 0.0000000000000000e+00 0.0000000000000000e+00
3.1000000000000001e+00 0.0000000000000000e+00 0.0000000000000000e+00
3.2000000000000002e+00 0.0000000000000000e+00 0.0000000000000000e+00
3.3000000000000003e+00 0.0000000000000000e+00 0.0000000000000000e+00
3.4000000000000004e+00 0.0000000000000000e+00 0.0000000000000000e+00
3.5000000000000000e+00 0.0000000000000000e+00 0.0000000000000000e+00
3.6000000000000001e+00 0.0000000000000000e+00 0.0000000000000000e+00
3.7000000000000002e+00 0.0000000000000000e+00 0.0000000000000000e+00
3.8000000000000003e+00 0.0000000000000000e+00 0.0000000000000000e+00
3.9000000000000004e+00 0.0000000000000000e+00 0.0000000000000000e+00
4.0000000000000000e+00 0.0000000000000000e+00 0.0000000000000000e+00
4.1000000000000005e+00 0.0000000000000000e+00 0.0000000000000000e+00
4.2000000000000002e+00 0.0000000000000000e+00 0.0000000000000000e+00
4.2999999999999998e+00 0.0000000000000000e+00 0.0000000000000000e+00
4.4000000000000004e+00 0.0000000000000000e+00 0.0000000000000000e+00
4.5000000000000000e+00 0.0000000000000000e+00 0.0000000000000000e+00
4.6000000000000005e+00 0.0000000000000000e+00 0.0000000000000000e+00
4.7000000000000002e+00 0.0000000000000000e+00 0.0000000000000000e+00
4.8000000000000007e+00 0.0000000000000000e+00 0.0000000000000000e+00
4.9000000000000004e+00 0.0000000000000000e+00 0.0000000000000000e+00
5.0000000000000000e+00 0.0000000000000000e+00 0.0000000000000000e+00
5.1000000000000005e+00 0.0000000000000000e+00 0.0000000000000000e+00
5.2000000000000002e+00 0.0000000000000000e+00 0.0000000000000000e+00
5.3000000000000007e+00 0.0000000000000000e+00 0.0000000000000000e+00
5.4000000000000004e+00 0.0000000000000000e+00 0.0000000000000000e+00
5.5000000000000000e+00 0.0000000000000000e+00 0.0000000000000000e+00
5.6000000000000005e+00 0.0000000000000000e+00 0.0000000000000000e+00
5.7000000000000002e+00 0.0000000000000000e+00 0.0000000000000000e+00
5.8000000000000007e+00 0.0000000000000000e+00 0.0000000000000000e+00
5.9000000000000004e+00 0.0000000000000000e+00 0.0000000000000000e+00
6.0000000000000000e+00 0.0000000000000000e+00 0.0000000000000000e+00
6.1000000000000005e+00 0.0000000000000000e+00 0.0000000000000000e+00
6.2000000000000002e+00 0.0000000000000000e+00 0.0000000000000000e+00
6.3000000000000007e+00 0.0000000000000000e+00 0.0000000000000000e+00
6.4000000000000004e+00 0.0000000000000000e+00 0.0000000000000000e+00
6.5000000000000000e+00 0.0000000000000000e+00 0.0000000000000000e+00
6.6000000000000005e+00 0.0000000000000000e+00 0.0000000000000000e+00
6.7000000000000002e+00 0.0000000000000000e+00 0.0000000000000000e+00
6.8000000000000007e+00 0.0000000000000000e+00 0.0000000000000000e+00
6.9000000000000004e+00 0.0000000000000000e+00 0.0000000000000000e+00
7.0000000000000000e+00 0.0000000000000000e+00 0.0000000000000000e+00
7.1000000000000005e+00 0.0000000000000000e+00 0.0000000000000000e+00
7.2000000000000002e+00 0.0000000000000000e+00 0.0000000000000000e+00
7.3000000000000007e+00 0.0000000000000000e+00 0.0000000000000000e+00
7.4000000000000004e+00 0.0000000000000000e+00 0.0000000000000000e+00
7.5000000000000000e+00 0.0000000000000000e+00 0.0000000000000000e+00
7.6000000000000005e+00 0.0000000000000000e+00 0.0000000000000000e+00
7.7000000000000002e+00 0.0000000000000000e+00 0.0000000000000000e+00
7.8000000000000007e+00 0.0000000000000000e+00 0.0000000000000000e+00
7.9000000000000004e+00 0.0000000000000000e+00 0.0000000000000000e+00
8.0000000000000000e+00 0.0000000000000000e+00 0.0000000000000000e+00
8.0999999999999996e+00 0.0000000000000000e+00 0.0000000000000000e+00
8.2000000000000011e+00 0.0000000000000000e+00 0.0000000000000000e+00
8.3000000000000007e+00 0.0000000000000000e+00 0.0000000000000000e+00
8.4000000000000004e+00 0.0000000000000000e+00 0.0000000000000000e+00
8.5000000000000000e+00 0.0000000000000000e+00 0.0000000000000000e+00
8.5999999999999996e+00 0.0000000000000000e+00 0.0000000000000000e+00
8.7000000000000011e+00 0.0000000000000000e+00 0.0000000000000000e+00
8.8000000000000007e+00 0.0000000000000000e+00 0.0000000000000000e+00
8.9000000000000004e+00 0.0000000000000000e+00 0.0000000000000000e+00
9.0000000000000000e+00 0.0000000000000000e+00 0.0000000000000000e+00
9.0999999999999996e+00 0.0000000000000000e+00 0.0000000000000000e+00
9.2000000000000011e+00 0.0000000000000000e+00 0.0000000000000000e+00
9.3000000000000007e+00 0.0000000000000000e+00 0.0000000000000000e+00
9.4000000000000004e+00 0.0000000000000000e+00 0.0000000000000000e+00
9.5000000000000000e+00 0.0000000000000000e+00 0.0000000000000000e+00
9.6000000000000014e+00 0.0000000000000000e+00 0.0000000000000000e+00
9.7000000000000011e+00 0.0000000000000000e+00 0.0000000000000000e+00
9.8000000000000007e+00 0.0000000000000000e+00 0.0000000000000000e+00
9.9000000000000004e+00 0.0000000000000000e+00 0.0000000000000000e+00
1.0000000000000000e+01 0.0000000000000000e+00 0.0000000000000000e+00

POINT_DATA 101

VECTORS velocity float
3.0965220748631901e+00 0.0000000000000000e+00 0.0000000000000000e+00
3.0966630509559150e+00 0.0000000000000000e+00 0.0000000000000000e+00
3.0968216634328440e+00 0.0000000000000000e+00 0.0000000000000000e+00
3.0969862360342186e+00 0.0000000000000000e+00 0.0000000000000000e+00
3.0971518832029439e+00 0.0000000000000000e+00 0.0000000000000000e+00
3.0973171412325686e+00 0.0000000000000000e+00 0.0000000000000000e+00
3.0974833861633488e+00 0.0000000000000000e+00 0.0000000000000000e+00
3.0976500355054948e+00 0.0000000000000000e+00 0.0000000000000000e+00
3.0978139532698932e+00 0.0000000000000000e+00 0.0000000000000000e+00
3.0979727991669734e+00 0.0000000000000000e+00 0.0000000000000000e+00
3.0981275097716376e+00 0.0000000000000000e+00 0.0000000000000000e+00
3.0982791894363015e+00 0.0000000000000000e+00 0.0000000000000000e+00
3.0984286742654175e+00 0.0000000000000000e+00 0.0000000000000000e+00
3.0985774640289443e+00 0.0000000000000000e+00 0.0000000000000000e+00
3.0987259032603407e+00 0.0000000000000000e+00 0.0000000000000000e+00
3.0988733368037074e+00 0.0000000000000000e+00 0.0000000000000000e+00
3.0990182813856624e+00 0.0000000000000000e+00 0.0000000000000000e+00
3.0991600616629844e+00 0.0000000000000000e+00 0.0000000000000000e+00
3.0992993920536538e+00 0.0000000000000000e+00 0.0000000000000000e+00
3.0994364197244151e+00 0.0000000000000000e+00 0.0000000000000000e+00
3.0995710044151918e+00 0.0000000000000000e+00 0.0000000000000000e+00
3.0997034917497324e+00 0.0000000000000000e+00 0.0000000000000000e+00
3.0998339268726833e+00 0.0000000000000000e+00 0.0000000000000000e+00
3.0999623736946327e+00 0.0000000000000000e+00 0.0000000000000000e+00
3.1000893139634851e+00 0.0000000000000000e+00 0.0000000000000000e+00
3.1002143970202991e+00 0.0000000000000000e+00 0.0000000000000000e+00
3.1003372412438104e+00 0.0000000000000000e+00 0.0000000000000000e+00
3.1004578978316455e+00 0.0000000000000000e+00 0.0000000000000000e+00
3.1005764585646909e+00 0.0000000000000000e+00 0.0000000000000000e+00
3.1006926004815920e+00 0.0000000000000000e+00 0.0000000000000000e+00
3.1008060234753767e+00 0.0000000000000000e+00 0.0000000000000000e+00
3.1009169956771236e+00 0.0000000000000000e+00 0.0000000000000000e+00
3.1010257752376762e+00 0.0000000000000000e+00 0.0000000000000000e+00
3.1011326360011577e+00 0.0000000000000000e+00 0.0000000000000000e+00
3.1012375309739304e+00 0.0000000000000000e+00 0.0000000000000000e+00
3.1013403600503531e+00 0.0000000000000000e+00 0.0000000000000000e+00
3.1014410760439026e+00 0.0000000000000000e+00 0.0000000000000000e+00
3.1015396683379763e+00 0.0000000000000000e+00 0.0000000000000000e+00
3.1016361161347037e+00 0.0000000000000000e+00 0.0000000000000000e+00
3.1017304410498072e+00 0.0000000000000000e+00 0.0000000000000000e+00
3.1018225917001230e+00 0.0000000000000000e+00 0.0000000000000000e+00
3.1019125427230176e+00 0.0000000000000000e+00 0.0000000000000000e+00
3.1020002787526098e+00 0.0000000000000000e+00 0.0000000000000000e+00
3.1020857920747580e+00 0.0000000000000000e+00 0.0000000000000000e+00
3.1021690787068943e+00 0.0000000000000000e+00 0.0000000000000000e+00
3.1022501363312798e+00 0.0000000000000000e+00 0.0000000000000000e+00
3.1023289639839549e+00 0.0000000000000000e+00 0.0000000000000000e+00
3.1024055611205452e+00 0.0000000000000000e+00 0.0000000000000000e+00
3.1024799275003767e+00 0.0000000000000000e+00 0.0000000000000000e+00
3.1025520626289720e+00 0.0000000000000000e+00 0.0000000000000000e+00
3.1026219659566734e+00 0.0000000000000000e+00 0.0000000000000000e+00
3.1026896371088046e+00 0.0000000000000000e+00 0.0000000000000000e+00
3.1027550758758196e+00 0.0000000000000000e+00 0.0000000000000000e+00
3.1028182821107859e+00 0.0000000000000000e+00 0.0000000000000000e+00
3.1028792556396971e+00 0.0000000000000000e+00 0.0000000000000000e+00
3.1029379963128769e+00 0.0000000000000000e+00 0.0000000000000000e+00
3.1029945033674124e+00 0.0000000000000000e+00 0.0000000000000000e+00
3.1030487765409012e+00 0.0000000000000000e+00 0.0000000000000000e+00
3.1031008161529940e+00 0.0000000000000000e+00 0.0000000000000000e+00
3.1031506220996876e+00 0.0000000000000000e+00 0.0000000000000000e+00
3.1031981942038787e+00 0.0000000000000000e+00 0.0000000000000000e+00
3.1032435323968937e+00 0.0000000000000000e+00 0.0000000000000000e+00
3.1032866364487055e+00 0.0000000000000000e+00 0.0000000000000000e+00
3.1033275059817731e+00 0.0000000000000000e+00 0.0000000000000000e+00
3.1033661407919322e+00 0.0000000000000000e+00 0.0000000000000000e+00
3.1034025407923806e+00 0.0000000000000000e+00 0.0000000000000000e+00
3.1034367058362751e+00 0.0000000000000000e+00 0.0000000000000000e+00
3.1034686358974133e+00 0.0000000000000000e+00 0.0000000000000000e+00
3.1034983309683644e+00 0.0000000000000000e+00 0.0000000000000000e+00
3.1035257909967884e+00 0.0000000000000000e+00 0.0000000000000000e+00
3.1035510159060329e+00 0.0000000000000000e+00 0.0000000000000000e+00
3.1035740056362173e+00 0.0000000000000000e+00 0.0000000000000000e+00
3.1035947600822373e+00 0.0000000000000000e+00 0.0000000000000000e+00
3.1036132791914439e+00 0.0000000000000000e+00 0.0000000000000000e+00
3.1036295630242536e+00 0.0000000000000000e+00 0.0000000000000000e+00
3.1036436113448658e+00 0.0000000000000000e+00 0.0000000000000000e+00
3.1036554244813219e+00 0.0000000000000000e+00 0.0000000000000000e+00
3.1036650021279795e+00 0.0000000000000000e+00 0.0000000000000000e+00
3.1036723446350218e+00 0.0000000000000000e+00 0.0000000000000000e+00
3.1036774524210018e+00 0.0000000000000000e+00 0.0000000000000000e+00
3.1036803248799516e+00 0.0000000000000000e+00 0.0000000000000000e+00
3.1036809619769419e+00 0.0000000000000000e+00 0.0000000000000000e+00
3.1036793636602864e+00 0.0000000000000000e+00 0.0000000000000000e+00
3.1036755310343556e+00 0.0000000000000000e+00 0.0000000000000000e+00
3.1036694636611197e+00 0.0000000000000000e+00 0.0000000000000000e+00
3.1036611605779578e+00 0.0000000000000000e+00 0.0000000000000000e+00
3.1036506213517709e+00 0.0000000000000000e+00 0.0000000000000000e+00
3.1036378469348795e+00 0.0000000000000000e+00 0.0000000000000000e+00
3.1036228383783051e+00 0.0000000000000000e+00 0.0000000000000000e+00
3.1036055954688506e+00 0.0000000000000000e+00 0.0000000000000000e+00
3.1035861195640333e+00 0.0000000000000000e+00 0.0000000000000000e+00
3.1035644077228604e+00 0.0000000000000000e+00 0.0000000000000000e+00
3.1035404640387609e+00 0.0000000000000000e+00 0.0000000000000000e+00
3.1035142802331777e+00 0.0000000000000000e+00 0.0000000000000000e+00
3.1034858782793169e+00 0.0000000000000000e+00 0.0000000000000000e+00
3.1034552066949326e+00 0.0000000000000000e+00 0.0000000000000000e+00
3.1034223844909663e+00 0.0000000000000000e+00 0.0000000000000000e+00
3.1033871385749090e+00 0.0000000000000000e+00 0.0000000000000000e+00
3.1033500951765913e+00 0.0000000000000000e+00 0.0000000000000000e+00
3.1033098297186168e+00 0.0000000000000000e+00 0.0000000000000000e+00
3.1032695642606427e+00 0.0000000000000000e+00 0.0000000000000000e+00


SCALARS pressure float
LOOKUP_TABLE default
-1.5730356206786961e+01
-1.5577047361207397e+01
-1.5423738515627832e+01
-1.5270360145770951e+01
-1.5116882431772755e+01
-1.4963293596948827e+01
-1.4809591186281546e+01
-1.4655781253444999e+01
-1.4501863173281272e+01
-1.4347829488908083e+01
-1.4193674806122667e+01
-1.4039404001795571e+01
-1.3885021872308089e+01
-1.3730531946263620e+01
-1.3575939416487003e+01
-1.3421245933148988e+01
-1.3266449968815117e+01
-1.3111547985408960e+01
-1.2956540818873220e+01
-1.2801432882261810e+01
-1.2646225068054020e+01
-1.2490917334122212e+01
-1.2335511205581376e+01
-1.2180007141735619e+01
-1.2024406312015746e+01
-1.1868712166907789e+01
-1.1712925462255487e+01
-1.1557046037307664e+01
-1.1401075220807744e+01
-1.1245014385685145e+01
-1.1088863542558881e+01
-1.0932622629757063e+01
-1.0776293473755757e+01
-1.0619877656790862e+01
-1.0463377084783843e+01
-1.0306792742903010e+01
-1.0150125490120994e+01
-9.9933763681699457e+00
-9.8365465216785672e+00
-9.6796370791442783e+00
-9.5226492312120197e+00
-9.3655837776450195e+00
-9.2084416828360691e+00
-9.0512239646838175e+00
-8.8939316740096821e+00
-8.7365658760874982e+00
-8.5791276435147008e+00
-8.4216180554392110e+00
-8.2640381924755726e+00
-8.1063891363854825e+00
-7.9486719684962370e+00
-7.7908877709316524e+00
-7.6330376270450033e+00
-7.4751226213781621e+00
-7.3171438391973309e+00
-7.1591023660435269e+00
-7.0009992880144862e+00
-6.8428356895372051e+00
-6.6846126574704146e+00
-6.5263312808938840e+00
-6.3679926477938098e+00
-6.2095978464317039e+00
-6.0511479655921230e+00
-5.8926440934720681e+00
-5.7340873181340450e+00
-5.5754787285364129e+00
-5.4168194142534238e+00
-5.2581104648481158e+00
-5.0993529705244693e+00
-4.9405480217217992e+00
-4.7816967088948203e+00
-4.6228001225081163e+00
-4.4638593530646702e+00
-4.3048754907412814e+00
-4.1458496257926596e+00
-3.9867828487325552e+00
-3.8276762489382281e+00
-3.6685309178823537e+00
-3.5093479446297939e+00
-3.3501284204686939e+00
-3.1908734359095758e+00
-3.0315840778199030e+00
-2.8722614351147491e+00
-2.7129065960895224e+00
-2.5535206526823004e+00
-2.3941046910091264e+00
-2.2346597954168961e+00
-2.0751870518027764e+00
-1.9156875509896487e+00
-1.7561623815130785e+00
-1.5966126278905564e+00
-1.4370393795011076e+00
-1.2774437113002486e+00
-1.1178267204301648e+00
-9.5818946339906086e-01
-7.9853309309083464e-01
-6.3885852679450816e-01
-4.7916722197734563e-01
-3.1945940316822197e-01
-1.5973809083628943e-01
0.0000000000000000e+00


SCALARS diameter float
LOOKUP_TABLE default
9.9857535492434157e-01
9.9859292395554156e-01
9.9860821605298000e-01
9.9862311858406905e-01
9.9863753266744681e-01
9.9865195159435249e-01
9.9866505220641677e-01
9.9867712613489978e-01
9.9868975386608494e-01
9.9870412122275942e-01
9.9871909260214842e-01
9.9873408144858478e-01
9.9874905018924720e-01
9.9876332399854073e-01
9.9877665800007409e-01
9.9878982226029567e-01
9.9880303721750929e-01
9.9881702254161986e-01
9.9883116622403634e-01
9.9884535110307615e-01
9.9885962996426736e-01
9.9887388393326026e-01
9.9888791223868945e-01
9.9890196551731170e-01
9.9891568098426664e-01
9.9892941655730216e-01
9.9894334506411431e-01
9.9895724435202038e-01
9.9897115663919944e-01
9.9898510994366896e-01
9.9899939805836246e-01
9.9901369509689464e-01
9.9902798526974623e-01
9.9904211100902462e-01
9.9905618874874180e-01
9.9907027629867240e-01
9.9908437423634944e-01
9.9909848320400041e-01
9.9911260265904944e-01
9.9912673389269435e-01
9.9914087482439529e-01
9.9915502131156930e-01
9.9916917532652993e-01
9.9918333704158635e-01
9.9919750654470407e-01
9.9921168395243565e-01
9.9922586925362644e-01
9.9924006232142348e-01
9.9925426291535024e-01
9.9926847091535209e-01
9.9928268635572870e-01
9.9929690913262015e-01
9.9931113906780544e-01
9.9932537600476590e-01
9.9933961979022579e-01
9.9935387026795608e-01
9.9936812748347681e-01
9.9938239148668540e-01
9.9939666170626817e-01
9.9941093809755011e-01
9.9942522057249872e-01
9.9943950896908540e-01
9.9945380314517740e-01
9.9946810307204881e-01
9.9948240866083493e-01
9.9949671970655662e-01
9.9951103613177383e-01
9.9952535776957707e-01
9.9953968445287389e-01
9.9955401606433325e-01
9.9956835248447584e-01
9.9958269358761076e-01
9.9959703924691479e-01
9.9961138933080440e-01
9.9962574364648304e-01
9.9964010212235976e-01
9.9965446459614771e-01
9.9966883083810731e-01
9.9968320098759700e-01
9.9969757424535111e-01
9.9971195108864830e-01
9.9972633130718458e-01
9.9974071473620996e-01
9.9975510096240805e-01
9.9976948963545276e-01
9.9978388180942734e-01
9.9979827681665845e-01
9.9981267472249913e-01
9.9982707441624696e-01
9.9984147621052744e-01
9.9985587971434742e-01
9.9987028518020227e-01
9.9988469317013129e-01
9.9989910206503607e-01
9.9991351261108763e-01
9.9992792450918389e-01
9.9994233765353935e-01
9.9995675190473765e-01
9.9997116692533028e-01
9.9998558262044812e-01
9.9999999983642740e-01


SCALARS iters float
LOOKUP_TABLE default
3.0000000000000000e+00
3.0000000000000000e+00
3.0000000000000000e+00
3.0000000000000000e+00
3.0000000000000000e+00
3.0000000000000000e+00
3.0000000000000000e+00
3.0000000000000000e+00
3.0000000000000000e+00
3.0000000000000000e+00
3.0000000000000000e+00
3.0000000000000000e+00
3.0000000000000000e+00
3.0000000000000000e+00
3.0000000000000000e+00
3.0000000000000000e+00
3.0000000000000000e+00
3.0000000000000000e+00
3.0000000000000000e+00
3.0000000000000000e+00
3.0000000000000000e+00
3.0000000000000000e+00
3.0000000000000000e+00
3.0000000000000000e+00
3.0000000000000000e+00
3.0000000000000000e+00
3.0000000000000000e+00
3.0000000000000000e+00
3.0000000000000000e+00
3.0000000000000000e+00
3.0000000000000000e+00
3.0000000000000000e+00
3.0000000000000000e+00
3.0000000000000000e+00
3.0000000000000000e+00
3.0000000000000000e+00
3.0000000000000000e+00
3.0000000000000000e+00
3.0000000000000000e+00
3.0000000000000000e+00
3.0000000000000000e+00
3.0000000000000000e+00
3.0000000000000000e+00
3.0000000000000000e+00
3.0000000000000000e+00
3.0000000000000000e+00
3.0000000000000000e+00
3.0000000000000000e+00
3.0000000000000000e+00
3.0000000000000000e+00
3.0000000000000000e+00
3.0000000000000000e+00
3.0000000000000000e+00
3.0000000000000000e+00
3.0000000000000000e+00
3.0000000000000000e+00
3.0000000000000000e+00
3.0000000000000000e+00
3.0000000000000000e+00
3.0000000000000000e+00
3.0000000000000000e+00
3.0000000000000000e+00
3.0000000000000000e+00
3.0000000000000000e+00
3.0000000000000000e+00
3.0000000000000000e+00
3.0000000000000000e+00
3.0000000000000000e+00
3.0000000000000000e+00
3.0000000000000000e+00
3.0000000000000000e+00
3.0000000000000000e+00
3.0000000000000000e+00
3.0000000000000000e+00
3.0000000000000000e+00
3.0000000000000000e+00
3.0000000000000000e+00
3.0000000000000000e+00
3.0000000000000000e+00
3.0000000000000000e+00
3.0000000000000000e+00
3.0000000000000000e+00
3.0000000000000000e+00
3.0000000000000000e+00
3.0000000000000000e+00
3.0000000000000000e+00
3.0000000000000000e+00
3.0000000000000000e+00
3.0000000000000000e+00
3.0000000000000000e+00
3.0000000000000000e+00
3.0000000000000000e+00
3.0000000000000000e+00
3.0000000000000000e+00
3.0000000000000000e+00
3.0000000000000000e+00
3.0000000000000000e+00
3.0000000000000000e+00
3.0000000000000000e+00
3.0000000000000000e+00
3.0000000000000000e+00


